phonopy:
  version: 2.6.0
  frequency_unit_conversion_factor: 15.633302
  symmetry_tolerance: 1.00000e-05
  configuration:
    cell_filename: "POSCAR"
    dim: "12 12 12"
    create_displacements: ".true."

physical_unit:
  atomic_mass: "AMU"
  length: "Angstrom"
  force_constants: "eV/Angstrom^2"

supercell_matrix:
- [  12,   0,   0 ]
- [   0,  12,   0 ]
- [   0,   0,  12 ]

space_group:
  type: "Im-3m"
  number: 229
  Hall_symbol: "-I 4 2 3"

primitive_cell:
  lattice:
  - [     2.870000000000000,     0.000000000000000,     0.000000000000000 ] # a
  - [     0.000000000000000,     2.870000000000000,     0.000000000000000 ] # b
  - [     0.000000000000000,     0.000000000000000,     2.870000000000000 ] # c
  points:
  - symbol: Fe # 1
    coordinates: [  0.000000000000000,  0.000000000000000,  0.000000000000000 ]
    mass: 55.845000
  - symbol: Fe # 2
    coordinates: [  0.500000000000000,  0.500000000000000,  0.500000000000000 ]
    mass: 55.845000
  reciprocal_lattice: # without 2pi
  - [     0.348432055749129,     0.000000000000000,     0.000000000000000 ] # a*
  - [     0.000000000000000,     0.348432055749129,     0.000000000000000 ] # b*
  - [     0.000000000000000,     0.000000000000000,     0.348432055749129 ] # c*

unit_cell:
  lattice:
  - [     2.870000000000000,     0.000000000000000,     0.000000000000000 ] # a
  - [     0.000000000000000,     2.870000000000000,     0.000000000000000 ] # b
  - [     0.000000000000000,     0.000000000000000,     2.870000000000000 ] # c
  points:
  - symbol: Fe # 1
    coordinates: [  0.000000000000000,  0.000000000000000,  0.000000000000000 ]
    mass: 55.845000
    reduced_to: 1
  - symbol: Fe # 2
    coordinates: [  0.500000000000000,  0.500000000000000,  0.500000000000000 ]
    mass: 55.845000
    reduced_to: 2

supercell:
  lattice:
  - [    34.439999999999998,     0.000000000000000,     0.000000000000000 ] # a
  - [     0.000000000000000,    34.439999999999998,     0.000000000000000 ] # b
  - [     0.000000000000000,     0.000000000000000,    34.439999999999998 ] # c
  points:
  - symbol: Fe # 1
    coordinates: [  0.000000000000000,  0.000000000000000,  0.000000000000000 ]
    mass: 55.845000
    reduced_to: 1
  - symbol: Fe # 2
    coordinates: [  0.083333333333333,  0.000000000000000,  0.000000000000000 ]
    mass: 55.845000
    reduced_to: 1
  - symbol: Fe # 3
    coordinates: [  0.166666666666667,  0.000000000000000,  0.000000000000000 ]
    mass: 55.845000
    reduced_to: 1
  - symbol: Fe # 4
    coordinates: [  0.250000000000000,  0.000000000000000,  0.000000000000000 ]
    mass: 55.845000
    reduced_to: 1
  - symbol: Fe # 5
    coordinates: [  0.333333333333333,  0.000000000000000,  0.000000000000000 ]
    mass: 55.845000
    reduced_to: 1
  - symbol: Fe # 6
    coordinates: [  0.416666666666667,  0.000000000000000,  0.000000000000000 ]
    mass: 55.845000
    reduced_to: 1
  - symbol: Fe # 7
    coordinates: [  0.500000000000000,  0.000000000000000,  0.000000000000000 ]
    mass: 55.845000
    reduced_to: 1
  - symbol: Fe # 8
    coordinates: [  0.583333333333333,  0.000000000000000,  0.000000000000000 ]
    mass: 55.845000
    reduced_to: 1
  - symbol: Fe # 9
    coordinates: [  0.666666666666667,  0.000000000000000,  0.000000000000000 ]
    mass: 55.845000
    reduced_to: 1
  - symbol: Fe # 10
    coordinates: [  0.750000000000000,  0.000000000000000,  0.000000000000000 ]
    mass: 55.845000
    reduced_to: 1
  - symbol: Fe # 11
    coordinates: [  0.833333333333333,  0.000000000000000,  0.000000000000000 ]
    mass: 55.845000
    reduced_to: 1
  - symbol: Fe # 12
    coordinates: [  0.916666666666667,  0.000000000000000,  0.000000000000000 ]
    mass: 55.845000
    reduced_to: 1
  - symbol: Fe # 13
    coordinates: [  0.000000000000000,  0.083333333333333,  0.000000000000000 ]
    mass: 55.845000
    reduced_to: 1
  - symbol: Fe # 14
    coordinates: [  0.083333333333333,  0.083333333333333,  0.000000000000000 ]
    mass: 55.845000
    reduced_to: 1
  - symbol: Fe # 15
    coordinates: [  0.166666666666667,  0.083333333333333,  0.000000000000000 ]
    mass: 55.845000
    reduced_to: 1
  - symbol: Fe # 16
    coordinates: [  0.250000000000000,  0.083333333333333,  0.000000000000000 ]
    mass: 55.845000
    reduced_to: 1
  - symbol: Fe # 17
    coordinates: [  0.333333333333333,  0.083333333333333,  0.000000000000000 ]
    mass: 55.845000
    reduced_to: 1
  - symbol: Fe # 18
    coordinates: [  0.416666666666667,  0.083333333333333,  0.000000000000000 ]
    mass: 55.845000
    reduced_to: 1
  - symbol: Fe # 19
    coordinates: [  0.500000000000000,  0.083333333333333,  0.000000000000000 ]
    mass: 55.845000
    reduced_to: 1
  - symbol: Fe # 20
    coordinates: [  0.583333333333333,  0.083333333333333,  0.000000000000000 ]
    mass: 55.845000
    reduced_to: 1
  - symbol: Fe # 21
    coordinates: [  0.666666666666667,  0.083333333333333,  0.000000000000000 ]
    mass: 55.845000
    reduced_to: 1
  - symbol: Fe # 22
    coordinates: [  0.750000000000000,  0.083333333333333,  0.000000000000000 ]
    mass: 55.845000
    reduced_to: 1
  - symbol: Fe # 23
    coordinates: [  0.833333333333333,  0.083333333333333,  0.000000000000000 ]
    mass: 55.845000
    reduced_to: 1
  - symbol: Fe # 24
    coordinates: [  0.916666666666667,  0.083333333333333,  0.000000000000000 ]
    mass: 55.845000
    reduced_to: 1
  - symbol: Fe # 25
    coordinates: [  0.000000000000000,  0.166666666666667,  0.000000000000000 ]
    mass: 55.845000
    reduced_to: 1
  - symbol: Fe # 26
    coordinates: [  0.083333333333333,  0.166666666666667,  0.000000000000000 ]
    mass: 55.845000
    reduced_to: 1
  - symbol: Fe # 27
    coordinates: [  0.166666666666667,  0.166666666666667,  0.000000000000000 ]
    mass: 55.845000
    reduced_to: 1
  - symbol: Fe # 28
    coordinates: [  0.250000000000000,  0.166666666666667,  0.000000000000000 ]
    mass: 55.845000
    reduced_to: 1
  - symbol: Fe # 29
    coordinates: [  0.333333333333333,  0.166666666666667,  0.000000000000000 ]
    mass: 55.845000
    reduced_to: 1
  - symbol: Fe # 30
    coordinates: [  0.416666666666667,  0.166666666666667,  0.000000000000000 ]
    mass: 55.845000
    reduced_to: 1
  - symbol: Fe # 31
    coordinates: [  0.500000000000000,  0.166666666666667,  0.000000000000000 ]
    mass: 55.845000
    reduced_to: 1
  - symbol: Fe # 32
    coordinates: [  0.583333333333333,  0.166666666666667,  0.000000000000000 ]
    mass: 55.845000
    reduced_to: 1
  - symbol: Fe # 33
    coordinates: [  0.666666666666667,  0.166666666666667,  0.000000000000000 ]
    mass: 55.845000
    reduced_to: 1
  - symbol: Fe # 34
    coordinates: [  0.750000000000000,  0.166666666666667,  0.000000000000000 ]
    mass: 55.845000
    reduced_to: 1
  - symbol: Fe # 35
    coordinates: [  0.833333333333333,  0.166666666666667,  0.000000000000000 ]
    mass: 55.845000
    reduced_to: 1
  - symbol: Fe # 36
    coordinates: [  0.916666666666667,  0.166666666666667,  0.000000000000000 ]
    mass: 55.845000
    reduced_to: 1
  - symbol: Fe # 37
    coordinates: [  0.000000000000000,  0.250000000000000,  0.000000000000000 ]
    mass: 55.845000
    reduced_to: 1
  - symbol: Fe # 38
    coordinates: [  0.083333333333333,  0.250000000000000,  0.000000000000000 ]
    mass: 55.845000
    reduced_to: 1
  - symbol: Fe # 39
    coordinates: [  0.166666666666667,  0.250000000000000,  0.000000000000000 ]
    mass: 55.845000
    reduced_to: 1
  - symbol: Fe # 40
    coordinates: [  0.250000000000000,  0.250000000000000,  0.000000000000000 ]
    mass: 55.845000
    reduced_to: 1
  - symbol: Fe # 41
    coordinates: [  0.333333333333333,  0.250000000000000,  0.000000000000000 ]
    mass: 55.845000
    reduced_to: 1
  - symbol: Fe # 42
    coordinates: [  0.416666666666667,  0.250000000000000,  0.000000000000000 ]
    mass: 55.845000
    reduced_to: 1
  - symbol: Fe # 43
    coordinates: [  0.500000000000000,  0.250000000000000,  0.000000000000000 ]
    mass: 55.845000
    reduced_to: 1
  - symbol: Fe # 44
    coordinates: [  0.583333333333333,  0.250000000000000,  0.000000000000000 ]
    mass: 55.845000
    reduced_to: 1
  - symbol: Fe # 45
    coordinates: [  0.666666666666667,  0.250000000000000,  0.000000000000000 ]
    mass: 55.845000
    reduced_to: 1
  - symbol: Fe # 46
    coordinates: [  0.750000000000000,  0.250000000000000,  0.000000000000000 ]
    mass: 55.845000
    reduced_to: 1
  - symbol: Fe # 47
    coordinates: [  0.833333333333333,  0.250000000000000,  0.000000000000000 ]
    mass: 55.845000
    reduced_to: 1
  - symbol: Fe # 48
    coordinates: [  0.916666666666667,  0.250000000000000,  0.000000000000000 ]
    mass: 55.845000
    reduced_to: 1
  - symbol: Fe # 49
    coordinates: [  0.000000000000000,  0.333333333333333,  0.000000000000000 ]
    mass: 55.845000
    reduced_to: 1
  - symbol: Fe # 50
    coordinates: [  0.083333333333333,  0.333333333333333,  0.000000000000000 ]
    mass: 55.845000
    reduced_to: 1
  - symbol: Fe # 51
    coordinates: [  0.166666666666667,  0.333333333333333,  0.000000000000000 ]
    mass: 55.845000
    reduced_to: 1
  - symbol: Fe # 52
    coordinates: [  0.250000000000000,  0.333333333333333,  0.000000000000000 ]
    mass: 55.845000
    reduced_to: 1
  - symbol: Fe # 53
    coordinates: [  0.333333333333333,  0.333333333333333,  0.000000000000000 ]
    mass: 55.845000
    reduced_to: 1
  - symbol: Fe # 54
    coordinates: [  0.416666666666667,  0.333333333333333,  0.000000000000000 ]
    mass: 55.845000
    reduced_to: 1
  - symbol: Fe # 55
    coordinates: [  0.500000000000000,  0.333333333333333,  0.000000000000000 ]
    mass: 55.845000
    reduced_to: 1
  - symbol: Fe # 56
    coordinates: [  0.583333333333333,  0.333333333333333,  0.000000000000000 ]
    mass: 55.845000
    reduced_to: 1
  - symbol: Fe # 57
    coordinates: [  0.666666666666667,  0.333333333333333,  0.000000000000000 ]
    mass: 55.845000
    reduced_to: 1
  - symbol: Fe # 58
    coordinates: [  0.750000000000000,  0.333333333333333,  0.000000000000000 ]
    mass: 55.845000
    reduced_to: 1
  - symbol: Fe # 59
    coordinates: [  0.833333333333333,  0.333333333333333,  0.000000000000000 ]
    mass: 55.845000
    reduced_to: 1
  - symbol: Fe # 60
    coordinates: [  0.916666666666667,  0.333333333333333,  0.000000000000000 ]
    mass: 55.845000
    reduced_to: 1
  - symbol: Fe # 61
    coordinates: [  0.000000000000000,  0.416666666666667,  0.000000000000000 ]
    mass: 55.845000
    reduced_to: 1
  - symbol: Fe # 62
    coordinates: [  0.083333333333333,  0.416666666666667,  0.000000000000000 ]
    mass: 55.845000
    reduced_to: 1
  - symbol: Fe # 63
    coordinates: [  0.166666666666667,  0.416666666666667,  0.000000000000000 ]
    mass: 55.845000
    reduced_to: 1
  - symbol: Fe # 64
    coordinates: [  0.250000000000000,  0.416666666666667,  0.000000000000000 ]
    mass: 55.845000
    reduced_to: 1
  - symbol: Fe # 65
    coordinates: [  0.333333333333333,  0.416666666666667,  0.000000000000000 ]
    mass: 55.845000
    reduced_to: 1
  - symbol: Fe # 66
    coordinates: [  0.416666666666667,  0.416666666666667,  0.000000000000000 ]
    mass: 55.845000
    reduced_to: 1
  - symbol: Fe # 67
    coordinates: [  0.500000000000000,  0.416666666666667,  0.000000000000000 ]
    mass: 55.845000
    reduced_to: 1
  - symbol: Fe # 68
    coordinates: [  0.583333333333333,  0.416666666666667,  0.000000000000000 ]
    mass: 55.845000
    reduced_to: 1
  - symbol: Fe # 69
    coordinates: [  0.666666666666667,  0.416666666666667,  0.000000000000000 ]
    mass: 55.845000
    reduced_to: 1
  - symbol: Fe # 70
    coordinates: [  0.750000000000000,  0.416666666666667,  0.000000000000000 ]
    mass: 55.845000
    reduced_to: 1
  - symbol: Fe # 71
    coordinates: [  0.833333333333333,  0.416666666666667,  0.000000000000000 ]
    mass: 55.845000
    reduced_to: 1
  - symbol: Fe # 72
    coordinates: [  0.916666666666667,  0.416666666666667,  0.000000000000000 ]
    mass: 55.845000
    reduced_to: 1
  - symbol: Fe # 73
    coordinates: [  0.000000000000000,  0.500000000000000,  0.000000000000000 ]
    mass: 55.845000
    reduced_to: 1
  - symbol: Fe # 74
    coordinates: [  0.083333333333333,  0.500000000000000,  0.000000000000000 ]
    mass: 55.845000
    reduced_to: 1
  - symbol: Fe # 75
    coordinates: [  0.166666666666667,  0.500000000000000,  0.000000000000000 ]
    mass: 55.845000
    reduced_to: 1
  - symbol: Fe # 76
    coordinates: [  0.250000000000000,  0.500000000000000,  0.000000000000000 ]
    mass: 55.845000
    reduced_to: 1
  - symbol: Fe # 77
    coordinates: [  0.333333333333333,  0.500000000000000,  0.000000000000000 ]
    mass: 55.845000
    reduced_to: 1
  - symbol: Fe # 78
    coordinates: [  0.416666666666667,  0.500000000000000,  0.000000000000000 ]
    mass: 55.845000
    reduced_to: 1
  - symbol: Fe # 79
    coordinates: [  0.500000000000000,  0.500000000000000,  0.000000000000000 ]
    mass: 55.845000
    reduced_to: 1
  - symbol: Fe # 80
    coordinates: [  0.583333333333333,  0.500000000000000,  0.000000000000000 ]
    mass: 55.845000
    reduced_to: 1
  - symbol: Fe # 81
    coordinates: [  0.666666666666667,  0.500000000000000,  0.000000000000000 ]
    mass: 55.845000
    reduced_to: 1
  - symbol: Fe # 82
    coordinates: [  0.750000000000000,  0.500000000000000,  0.000000000000000 ]
    mass: 55.845000
    reduced_to: 1
  - symbol: Fe # 83
    coordinates: [  0.833333333333333,  0.500000000000000,  0.000000000000000 ]
    mass: 55.845000
    reduced_to: 1
  - symbol: Fe # 84
    coordinates: [  0.916666666666667,  0.500000000000000,  0.000000000000000 ]
    mass: 55.845000
    reduced_to: 1
  - symbol: Fe # 85
    coordinates: [  0.000000000000000,  0.583333333333333,  0.000000000000000 ]
    mass: 55.845000
    reduced_to: 1
  - symbol: Fe # 86
    coordinates: [  0.083333333333333,  0.583333333333333,  0.000000000000000 ]
    mass: 55.845000
    reduced_to: 1
  - symbol: Fe # 87
    coordinates: [  0.166666666666667,  0.583333333333333,  0.000000000000000 ]
    mass: 55.845000
    reduced_to: 1
  - symbol: Fe # 88
    coordinates: [  0.250000000000000,  0.583333333333333,  0.000000000000000 ]
    mass: 55.845000
    reduced_to: 1
  - symbol: Fe # 89
    coordinates: [  0.333333333333333,  0.583333333333333,  0.000000000000000 ]
    mass: 55.845000
    reduced_to: 1
  - symbol: Fe # 90
    coordinates: [  0.416666666666667,  0.583333333333333,  0.000000000000000 ]
    mass: 55.845000
    reduced_to: 1
  - symbol: Fe # 91
    coordinates: [  0.500000000000000,  0.583333333333333,  0.000000000000000 ]
    mass: 55.845000
    reduced_to: 1
  - symbol: Fe # 92
    coordinates: [  0.583333333333333,  0.583333333333333,  0.000000000000000 ]
    mass: 55.845000
    reduced_to: 1
  - symbol: Fe # 93
    coordinates: [  0.666666666666667,  0.583333333333333,  0.000000000000000 ]
    mass: 55.845000
    reduced_to: 1
  - symbol: Fe # 94
    coordinates: [  0.750000000000000,  0.583333333333333,  0.000000000000000 ]
    mass: 55.845000
    reduced_to: 1
  - symbol: Fe # 95
    coordinates: [  0.833333333333333,  0.583333333333333,  0.000000000000000 ]
    mass: 55.845000
    reduced_to: 1
  - symbol: Fe # 96
    coordinates: [  0.916666666666667,  0.583333333333333,  0.000000000000000 ]
    mass: 55.845000
    reduced_to: 1
  - symbol: Fe # 97
    coordinates: [  0.000000000000000,  0.666666666666667,  0.000000000000000 ]
    mass: 55.845000
    reduced_to: 1
  - symbol: Fe # 98
    coordinates: [  0.083333333333333,  0.666666666666667,  0.000000000000000 ]
    mass: 55.845000
    reduced_to: 1
  - symbol: Fe # 99
    coordinates: [  0.166666666666667,  0.666666666666667,  0.000000000000000 ]
    mass: 55.845000
    reduced_to: 1
  - symbol: Fe # 100
    coordinates: [  0.250000000000000,  0.666666666666667,  0.000000000000000 ]
    mass: 55.845000
    reduced_to: 1
  - symbol: Fe # 101
    coordinates: [  0.333333333333333,  0.666666666666667,  0.000000000000000 ]
    mass: 55.845000
    reduced_to: 1
  - symbol: Fe # 102
    coordinates: [  0.416666666666667,  0.666666666666667,  0.000000000000000 ]
    mass: 55.845000
    reduced_to: 1
  - symbol: Fe # 103
    coordinates: [  0.500000000000000,  0.666666666666667,  0.000000000000000 ]
    mass: 55.845000
    reduced_to: 1
  - symbol: Fe # 104
    coordinates: [  0.583333333333333,  0.666666666666667,  0.000000000000000 ]
    mass: 55.845000
    reduced_to: 1
  - symbol: Fe # 105
    coordinates: [  0.666666666666667,  0.666666666666667,  0.000000000000000 ]
    mass: 55.845000
    reduced_to: 1
  - symbol: Fe # 106
    coordinates: [  0.750000000000000,  0.666666666666667,  0.000000000000000 ]
    mass: 55.845000
    reduced_to: 1
  - symbol: Fe # 107
    coordinates: [  0.833333333333333,  0.666666666666667,  0.000000000000000 ]
    mass: 55.845000
    reduced_to: 1
  - symbol: Fe # 108
    coordinates: [  0.916666666666667,  0.666666666666667,  0.000000000000000 ]
    mass: 55.845000
    reduced_to: 1
  - symbol: Fe # 109
    coordinates: [  0.000000000000000,  0.750000000000000,  0.000000000000000 ]
    mass: 55.845000
    reduced_to: 1
  - symbol: Fe # 110
    coordinates: [  0.083333333333333,  0.750000000000000,  0.000000000000000 ]
    mass: 55.845000
    reduced_to: 1
  - symbol: Fe # 111
    coordinates: [  0.166666666666667,  0.750000000000000,  0.000000000000000 ]
    mass: 55.845000
    reduced_to: 1
  - symbol: Fe # 112
    coordinates: [  0.250000000000000,  0.750000000000000,  0.000000000000000 ]
    mass: 55.845000
    reduced_to: 1
  - symbol: Fe # 113
    coordinates: [  0.333333333333333,  0.750000000000000,  0.000000000000000 ]
    mass: 55.845000
    reduced_to: 1
  - symbol: Fe # 114
    coordinates: [  0.416666666666667,  0.750000000000000,  0.000000000000000 ]
    mass: 55.845000
    reduced_to: 1
  - symbol: Fe # 115
    coordinates: [  0.500000000000000,  0.750000000000000,  0.000000000000000 ]
    mass: 55.845000
    reduced_to: 1
  - symbol: Fe # 116
    coordinates: [  0.583333333333333,  0.750000000000000,  0.000000000000000 ]
    mass: 55.845000
    reduced_to: 1
  - symbol: Fe # 117
    coordinates: [  0.666666666666667,  0.750000000000000,  0.000000000000000 ]
    mass: 55.845000
    reduced_to: 1
  - symbol: Fe # 118
    coordinates: [  0.750000000000000,  0.750000000000000,  0.000000000000000 ]
    mass: 55.845000
    reduced_to: 1
  - symbol: Fe # 119
    coordinates: [  0.833333333333333,  0.750000000000000,  0.000000000000000 ]
    mass: 55.845000
    reduced_to: 1
  - symbol: Fe # 120
    coordinates: [  0.916666666666667,  0.750000000000000,  0.000000000000000 ]
    mass: 55.845000
    reduced_to: 1
  - symbol: Fe # 121
    coordinates: [  0.000000000000000,  0.833333333333333,  0.000000000000000 ]
    mass: 55.845000
    reduced_to: 1
  - symbol: Fe # 122
    coordinates: [  0.083333333333333,  0.833333333333333,  0.000000000000000 ]
    mass: 55.845000
    reduced_to: 1
  - symbol: Fe # 123
    coordinates: [  0.166666666666667,  0.833333333333333,  0.000000000000000 ]
    mass: 55.845000
    reduced_to: 1
  - symbol: Fe # 124
    coordinates: [  0.250000000000000,  0.833333333333333,  0.000000000000000 ]
    mass: 55.845000
    reduced_to: 1
  - symbol: Fe # 125
    coordinates: [  0.333333333333333,  0.833333333333333,  0.000000000000000 ]
    mass: 55.845000
    reduced_to: 1
  - symbol: Fe # 126
    coordinates: [  0.416666666666667,  0.833333333333333,  0.000000000000000 ]
    mass: 55.845000
    reduced_to: 1
  - symbol: Fe # 127
    coordinates: [  0.500000000000000,  0.833333333333333,  0.000000000000000 ]
    mass: 55.845000
    reduced_to: 1
  - symbol: Fe # 128
    coordinates: [  0.583333333333333,  0.833333333333333,  0.000000000000000 ]
    mass: 55.845000
    reduced_to: 1
  - symbol: Fe # 129
    coordinates: [  0.666666666666667,  0.833333333333333,  0.000000000000000 ]
    mass: 55.845000
    reduced_to: 1
  - symbol: Fe # 130
    coordinates: [  0.750000000000000,  0.833333333333333,  0.000000000000000 ]
    mass: 55.845000
    reduced_to: 1
  - symbol: Fe # 131
    coordinates: [  0.833333333333333,  0.833333333333333,  0.000000000000000 ]
    mass: 55.845000
    reduced_to: 1
  - symbol: Fe # 132
    coordinates: [  0.916666666666667,  0.833333333333333,  0.000000000000000 ]
    mass: 55.845000
    reduced_to: 1
  - symbol: Fe # 133
    coordinates: [  0.000000000000000,  0.916666666666667,  0.000000000000000 ]
    mass: 55.845000
    reduced_to: 1
  - symbol: Fe # 134
    coordinates: [  0.083333333333333,  0.916666666666667,  0.000000000000000 ]
    mass: 55.845000
    reduced_to: 1
  - symbol: Fe # 135
    coordinates: [  0.166666666666667,  0.916666666666667,  0.000000000000000 ]
    mass: 55.845000
    reduced_to: 1
  - symbol: Fe # 136
    coordinates: [  0.250000000000000,  0.916666666666667,  0.000000000000000 ]
    mass: 55.845000
    reduced_to: 1
  - symbol: Fe # 137
    coordinates: [  0.333333333333333,  0.916666666666667,  0.000000000000000 ]
    mass: 55.845000
    reduced_to: 1
  - symbol: Fe # 138
    coordinates: [  0.416666666666667,  0.916666666666667,  0.000000000000000 ]
    mass: 55.845000
    reduced_to: 1
  - symbol: Fe # 139
    coordinates: [  0.500000000000000,  0.916666666666667,  0.000000000000000 ]
    mass: 55.845000
    reduced_to: 1
  - symbol: Fe # 140
    coordinates: [  0.583333333333333,  0.916666666666667,  0.000000000000000 ]
    mass: 55.845000
    reduced_to: 1
  - symbol: Fe # 141
    coordinates: [  0.666666666666667,  0.916666666666667,  0.000000000000000 ]
    mass: 55.845000
    reduced_to: 1
  - symbol: Fe # 142
    coordinates: [  0.750000000000000,  0.916666666666667,  0.000000000000000 ]
    mass: 55.845000
    reduced_to: 1
  - symbol: Fe # 143
    coordinates: [  0.833333333333333,  0.916666666666667,  0.000000000000000 ]
    mass: 55.845000
    reduced_to: 1
  - symbol: Fe # 144
    coordinates: [  0.916666666666667,  0.916666666666667,  0.000000000000000 ]
    mass: 55.845000
    reduced_to: 1
  - symbol: Fe # 145
    coordinates: [  0.000000000000000,  0.000000000000000,  0.083333333333333 ]
    mass: 55.845000
    reduced_to: 1
  - symbol: Fe # 146
    coordinates: [  0.083333333333333,  0.000000000000000,  0.083333333333333 ]
    mass: 55.845000
    reduced_to: 1
  - symbol: Fe # 147
    coordinates: [  0.166666666666667,  0.000000000000000,  0.083333333333333 ]
    mass: 55.845000
    reduced_to: 1
  - symbol: Fe # 148
    coordinates: [  0.250000000000000,  0.000000000000000,  0.083333333333333 ]
    mass: 55.845000
    reduced_to: 1
  - symbol: Fe # 149
    coordinates: [  0.333333333333333,  0.000000000000000,  0.083333333333333 ]
    mass: 55.845000
    reduced_to: 1
  - symbol: Fe # 150
    coordinates: [  0.416666666666667,  0.000000000000000,  0.083333333333333 ]
    mass: 55.845000
    reduced_to: 1
  - symbol: Fe # 151
    coordinates: [  0.500000000000000,  0.000000000000000,  0.083333333333333 ]
    mass: 55.845000
    reduced_to: 1
  - symbol: Fe # 152
    coordinates: [  0.583333333333333,  0.000000000000000,  0.083333333333333 ]
    mass: 55.845000
    reduced_to: 1
  - symbol: Fe # 153
    coordinates: [  0.666666666666667,  0.000000000000000,  0.083333333333333 ]
    mass: 55.845000
    reduced_to: 1
  - symbol: Fe # 154
    coordinates: [  0.750000000000000,  0.000000000000000,  0.083333333333333 ]
    mass: 55.845000
    reduced_to: 1
  - symbol: Fe # 155
    coordinates: [  0.833333333333333,  0.000000000000000,  0.083333333333333 ]
    mass: 55.845000
    reduced_to: 1
  - symbol: Fe # 156
    coordinates: [  0.916666666666667,  0.000000000000000,  0.083333333333333 ]
    mass: 55.845000
    reduced_to: 1
  - symbol: Fe # 157
    coordinates: [  0.000000000000000,  0.083333333333333,  0.083333333333333 ]
    mass: 55.845000
    reduced_to: 1
  - symbol: Fe # 158
    coordinates: [  0.083333333333333,  0.083333333333333,  0.083333333333333 ]
    mass: 55.845000
    reduced_to: 1
  - symbol: Fe # 159
    coordinates: [  0.166666666666667,  0.083333333333333,  0.083333333333333 ]
    mass: 55.845000
    reduced_to: 1
  - symbol: Fe # 160
    coordinates: [  0.250000000000000,  0.083333333333333,  0.083333333333333 ]
    mass: 55.845000
    reduced_to: 1
  - symbol: Fe # 161
    coordinates: [  0.333333333333333,  0.083333333333333,  0.083333333333333 ]
    mass: 55.845000
    reduced_to: 1
  - symbol: Fe # 162
    coordinates: [  0.416666666666667,  0.083333333333333,  0.083333333333333 ]
    mass: 55.845000
    reduced_to: 1
  - symbol: Fe # 163
    coordinates: [  0.500000000000000,  0.083333333333333,  0.083333333333333 ]
    mass: 55.845000
    reduced_to: 1
  - symbol: Fe # 164
    coordinates: [  0.583333333333333,  0.083333333333333,  0.083333333333333 ]
    mass: 55.845000
    reduced_to: 1
  - symbol: Fe # 165
    coordinates: [  0.666666666666667,  0.083333333333333,  0.083333333333333 ]
    mass: 55.845000
    reduced_to: 1
  - symbol: Fe # 166
    coordinates: [  0.750000000000000,  0.083333333333333,  0.083333333333333 ]
    mass: 55.845000
    reduced_to: 1
  - symbol: Fe # 167
    coordinates: [  0.833333333333333,  0.083333333333333,  0.083333333333333 ]
    mass: 55.845000
    reduced_to: 1
  - symbol: Fe # 168
    coordinates: [  0.916666666666667,  0.083333333333333,  0.083333333333333 ]
    mass: 55.845000
    reduced_to: 1
  - symbol: Fe # 169
    coordinates: [  0.000000000000000,  0.166666666666667,  0.083333333333333 ]
    mass: 55.845000
    reduced_to: 1
  - symbol: Fe # 170
    coordinates: [  0.083333333333333,  0.166666666666667,  0.083333333333333 ]
    mass: 55.845000
    reduced_to: 1
  - symbol: Fe # 171
    coordinates: [  0.166666666666667,  0.166666666666667,  0.083333333333333 ]
    mass: 55.845000
    reduced_to: 1
  - symbol: Fe # 172
    coordinates: [  0.250000000000000,  0.166666666666667,  0.083333333333333 ]
    mass: 55.845000
    reduced_to: 1
  - symbol: Fe # 173
    coordinates: [  0.333333333333333,  0.166666666666667,  0.083333333333333 ]
    mass: 55.845000
    reduced_to: 1
  - symbol: Fe # 174
    coordinates: [  0.416666666666667,  0.166666666666667,  0.083333333333333 ]
    mass: 55.845000
    reduced_to: 1
  - symbol: Fe # 175
    coordinates: [  0.500000000000000,  0.166666666666667,  0.083333333333333 ]
    mass: 55.845000
    reduced_to: 1
  - symbol: Fe # 176
    coordinates: [  0.583333333333333,  0.166666666666667,  0.083333333333333 ]
    mass: 55.845000
    reduced_to: 1
  - symbol: Fe # 177
    coordinates: [  0.666666666666667,  0.166666666666667,  0.083333333333333 ]
    mass: 55.845000
    reduced_to: 1
  - symbol: Fe # 178
    coordinates: [  0.750000000000000,  0.166666666666667,  0.083333333333333 ]
    mass: 55.845000
    reduced_to: 1
  - symbol: Fe # 179
    coordinates: [  0.833333333333333,  0.166666666666667,  0.083333333333333 ]
    mass: 55.845000
    reduced_to: 1
  - symbol: Fe # 180
    coordinates: [  0.916666666666667,  0.166666666666667,  0.083333333333333 ]
    mass: 55.845000
    reduced_to: 1
  - symbol: Fe # 181
    coordinates: [  0.000000000000000,  0.250000000000000,  0.083333333333333 ]
    mass: 55.845000
    reduced_to: 1
  - symbol: Fe # 182
    coordinates: [  0.083333333333333,  0.250000000000000,  0.083333333333333 ]
    mass: 55.845000
    reduced_to: 1
  - symbol: Fe # 183
    coordinates: [  0.166666666666667,  0.250000000000000,  0.083333333333333 ]
    mass: 55.845000
    reduced_to: 1
  - symbol: Fe # 184
    coordinates: [  0.250000000000000,  0.250000000000000,  0.083333333333333 ]
    mass: 55.845000
    reduced_to: 1
  - symbol: Fe # 185
    coordinates: [  0.333333333333333,  0.250000000000000,  0.083333333333333 ]
    mass: 55.845000
    reduced_to: 1
  - symbol: Fe # 186
    coordinates: [  0.416666666666667,  0.250000000000000,  0.083333333333333 ]
    mass: 55.845000
    reduced_to: 1
  - symbol: Fe # 187
    coordinates: [  0.500000000000000,  0.250000000000000,  0.083333333333333 ]
    mass: 55.845000
    reduced_to: 1
  - symbol: Fe # 188
    coordinates: [  0.583333333333333,  0.250000000000000,  0.083333333333333 ]
    mass: 55.845000
    reduced_to: 1
  - symbol: Fe # 189
    coordinates: [  0.666666666666667,  0.250000000000000,  0.083333333333333 ]
    mass: 55.845000
    reduced_to: 1
  - symbol: Fe # 190
    coordinates: [  0.750000000000000,  0.250000000000000,  0.083333333333333 ]
    mass: 55.845000
    reduced_to: 1
  - symbol: Fe # 191
    coordinates: [  0.833333333333333,  0.250000000000000,  0.083333333333333 ]
    mass: 55.845000
    reduced_to: 1
  - symbol: Fe # 192
    coordinates: [  0.916666666666667,  0.250000000000000,  0.083333333333333 ]
    mass: 55.845000
    reduced_to: 1
  - symbol: Fe # 193
    coordinates: [  0.000000000000000,  0.333333333333333,  0.083333333333333 ]
    mass: 55.845000
    reduced_to: 1
  - symbol: Fe # 194
    coordinates: [  0.083333333333333,  0.333333333333333,  0.083333333333333 ]
    mass: 55.845000
    reduced_to: 1
  - symbol: Fe # 195
    coordinates: [  0.166666666666667,  0.333333333333333,  0.083333333333333 ]
    mass: 55.845000
    reduced_to: 1
  - symbol: Fe # 196
    coordinates: [  0.250000000000000,  0.333333333333333,  0.083333333333333 ]
    mass: 55.845000
    reduced_to: 1
  - symbol: Fe # 197
    coordinates: [  0.333333333333333,  0.333333333333333,  0.083333333333333 ]
    mass: 55.845000
    reduced_to: 1
  - symbol: Fe # 198
    coordinates: [  0.416666666666667,  0.333333333333333,  0.083333333333333 ]
    mass: 55.845000
    reduced_to: 1
  - symbol: Fe # 199
    coordinates: [  0.500000000000000,  0.333333333333333,  0.083333333333333 ]
    mass: 55.845000
    reduced_to: 1
  - symbol: Fe # 200
    coordinates: [  0.583333333333333,  0.333333333333333,  0.083333333333333 ]
    mass: 55.845000
    reduced_to: 1
  - symbol: Fe # 201
    coordinates: [  0.666666666666667,  0.333333333333333,  0.083333333333333 ]
    mass: 55.845000
    reduced_to: 1
  - symbol: Fe # 202
    coordinates: [  0.750000000000000,  0.333333333333333,  0.083333333333333 ]