ITEM: TIMESTEP
0
ITEM: NUMBER OF ATOMS
2
ITEM: BOX BOUNDS xy xz yz pp pp pp
0.0000000000000000e+00 2.8700000000000001e+00 0.0000000000000000e+00
0.0000000000000000e+00 2.8700000000000001e+00 0.0000000000000000e+00
0.0000000000000000e+00 2.8700000000000001e+00 0.0000000000000000e+00
ITEM: ATOMS id type xs ys zs
1 1 0 0 0
2 1 0.5 0.5 0.5
ITEM: TIMESTEP
100
ITEM: NUMBER OF ATOMS
2
ITEM: BOX BOUNDS xy xz yz pp pp pp
0.0000000000000000e+00 2.8700000000000001e+00 0.0000000000000000e+00
0.0000000000000000e+00 2.8700000000000001e+00 0.0000000000000000e+00
0.0000000000000000e+00 2.8700000000000001e+00 0.0000000000000000e+00
ITEM: ATOMS id type xs ys zs
1 1 0.00893108 -0.00534859 0.0111171
2 1 0.491069 0.505349 0.488883
ITEM: TIMESTEP
200
ITEM: NUMBER OF ATOMS
2
ITEM: BOX BOUNDS xy xz yz pp pp pp
0.0000000000000000e+00 2.8700000000000001e+00 0.0000000000000000e+00
0.0000000000000000e+00 2.8700000000000001e+00 0.0000000000000000e+00
0.0000000000000000e+00 2.8700000000000001e+00 0.0000000000000000e+00
ITEM: ATOMS id type xs ys zs
1 1 0.0187428 -0.0115239 0.0215266
2 1 0.481257 0.511524 0.478473
ITEM: TIMESTEP
300
ITEM: NUMBER OF ATOMS
2
ITEM: BOX BOUNDS xy xz yz pp pp pp
0.0000000000000000e+00 2.8700000000000001e+00 0.0000000000000000e+00
0.0000000000000000e+00 2.8700000000000001e+00 0.0000000000000000e+00
0.0000000000000000e+00 2.8700000000000001e+00 0.0000000000000000e+00
ITEM: ATOMS id type xs ys zs
1 1 0.015599 -0.0107032 0.0141263
2 1 0.484401 0.510703 0.485874
ITEM: TIMESTEP
400
ITEM: NUMBER OF ATOMS
2
ITEM: BOX BOUNDS xy xz yz pp pp pp
0.0000000000000000e+00 2.8700000000000001e+00 0.0000000000000000e+00
0.0000000000000000e+00 2.8700000000000001e+00 0.0000000000000000e+00
0.0000000000000000e+00 2.8700000000000001e+00 0.0000000000000000e+00
ITEM: ATOMS id type xs ys zs
1 1 0.00315017 -0.0037754 9.10486e-05
2 1 0.49685 0.503775 0.499909
ITEM: TIMESTEP
500
ITEM: NUMBER OF ATOMS
2
ITEM: BOX BOUNDS xy xz yz pp pp pp
0.0000000000000000e+00 2.8700000000000001e+00 0.0000000000000000e+00
0.0000000000000000e+00 2.8700000000000001e+00 0.0000000000000000e+00
0.0000000000000000e+00 2.8700000000000001e+00 0.0000000000000000e+00
ITEM: ATOMS id type xs ys zs
1 1 -0.00841348 0.0040846 -0.00947235
2 1 0.508413 0.495915 0.509472
ITEM: TIMESTEP
600
ITEM: NUMBER OF ATOMS
2
ITEM: BOX BOUNDS xy xz yz pp pp pp
0.0000000000000000e+00 2.8700000000000001e+00 0.0000000000000000e+00
0.0000000000000000e+00 2.8700000000000001e+00 0.0000000000000000e+00
0.0000000000000000e+00 2.8700000000000001e+00 0.0000000000000000e+00
ITEM: ATOMS id type xs ys zs
1 1 -0.0134478 0.00939662 -0.0116867
2 1 0.513448 0.490603 0.511687
ITEM: TIMESTEP
700
ITEM: NUMBER OF ATOMS
2
ITEM: BOX BOUNDS xy xz yz pp pp pp
0.0000000000000000e+00 2.8700000000000001e+00 0.0000000000000000e+00
0.0000000000000000e+00 2.8700000000000001e+00 0.0000000000000000e+00
0.0000000000000000e+00 2.8700000000000001e+00 0.0000000000000000e+00
ITEM: ATOMS id type xs ys zs
1 1 -0.00916801 0.00865025 -0.00651661
2 1 0.509168 0.49135 0.506517
ITEM: TIMESTEP
800
ITEM: NUMBER OF ATOMS
2
ITEM: BOX BOUNDS xy xz yz pp pp pp
0.0000000000000000e+00 2.8700000000000001e+00 0.0000000000000000e+00
0.0000000000000000e+00 2.8700000000000001e+00 0.0000000000000000e+00
0.0000000000000000e+00 2.8700000000000001e+00 0.0000000000000000e+00
ITEM: ATOMS id type xs ys zs
1 1 0.00103283 0.00226822 0.00209517
2 1 0.498967 0.497732 0.497905
ITEM: TIMESTEP
900
ITEM: NUMBER OF ATOMS
2
ITEM: BOX BOUNDS xy xz yz pp pp pp
0.0000000000000000e+00 2.8700000000000001e+00 0.0000000000000000e+00
0.0000000000000000e+00 2.8700000000000001e+00 0.0000000000000000e+00
0.0000000000000000e+00 2.8700000000000001e+00 0.0000000000000000e+00
ITEM: ATOMS id type xs ys zs
1 1 0.0139731 -0.00934657 0.0116263
2 1 0.486027 0.509347 0.488374
ITEM: TIMESTEP
1000
ITEM: NUMBER OF ATOMS
2
ITEM: BOX BOUNDS xy xz yz pp pp pp
0.0000000000000000e+00 2.8700000000000001e+00 0.0000000000000000e+00
0.0000000000000000e+00 2.8700000000000001e+00 0.0000000000000000e+00
0.0000000000000000e+00 2.8700000000000001e+00 0.0000000000000000e+00
ITEM: ATOMS id type xs ys zs
1 1 0.0185628 -0.0188257 0.0143435
2 1 0.481437 0.518826 0.485657
ITEM: TIMESTEP
1100
ITEM: NUMBER OF ATOMS
2
ITEM: BOX BOUNDS xy xz yz pp pp pp
0.0000000000000000e+00 2.8700000000000001e+00 0.0000000000000000e+00
0.0000000000000000e+00 2.8700000000000001e+00 0.0000000000000000e+00
0.0000000000000000e+00 2.8700000000000001e+00 0.0000000000000000e+00
ITEM: ATOMS id type xs ys zs
1 1 0.00868527 -0.0120218 0.00671806
2 1 0.491315 0.512022 0.493282
ITEM: TIMESTEP
1200
ITEM: NUMBER OF ATOMS
2
ITEM: BOX BOUNDS xy xz yz pp pp pp
0.0000000000000000e+00 2.8700000000000001e+00 0.0000000000000000e+00
0.0000000000000000e+00 2.8700000000000001e+00 0.0000000000000000e+00
0.0000000000000000e+00 2.8700000000000001e+00 0.0000000000000000e+00
ITEM: ATOMS id type xs ys zs
1 1 -0.000573831 -0.00131918 -0.000347069
2 1 0.500574 0.501319 0.500347
ITEM: TIMESTEP
1300
ITEM: NUMBER OF ATOMS
2
ITEM: BOX BOUNDS xy xz yz pp pp pp
0.0000000000000000e+00 2.8700000000000001e+00 0.0000000000000000e+00
0.0000000000000000e+00 2.8700000000000001e+00 0.0000000000000000e+00
0.0000000000000000e+00 2.8700000000000001e+00 0.0000000000000000e+00
ITEM: ATOMS id type xs ys zs
1 1 -0.00791723 0.00925424 -0.00609054
2 1 0.507917 0.490746 0.506091
ITEM: TIMESTEP
1400
ITEM: NUMBER OF ATOMS
2
ITEM: BOX BOUNDS xy xz yz pp pp pp
0.0000000000000000e+00 2.8700000000000001e+00 0.0000000000000000e+00
0.0000000000000000e+00 2.8700000000000001e+00 0.0000000000000000e+00
0.0000000000000000e+00 2.8700000000000001e+00 0.0000000000000000e+00
ITEM: ATOMS id type xs ys zs
1 1 -0.0106741 0.0147356 -0.00853107
2 1 0.510674 0.485264 0.508531
ITEM: TIMESTEP
1500
ITEM: NUMBER OF ATOMS
2
ITEM: BOX BOUNDS xy xz yz pp pp pp
0.0000000000000000e+00 2.8700000000000001e+00 0.0000000000000000e+00
0.0000000000000000e+00 2.8700000000000001e+00 0.0000000000000000e+00
0.0000000000000000e+00 2.8700000000000001e+00 0.0000000000000000e+00
ITEM: ATOMS id type xs ys zs
1 1 -0.0055837 0.00774221 -0.00492131
2 1 0.505584 0.492258 0.504921
ITEM: TIMESTEP
1600
ITEM: NUMBER OF ATOMS
2
ITEM: BOX BOUNDS xy xz yz pp pp pp
0.0000000000000000e+00 2.8700000000000001e+00 0.0000000000000000e+00
0.0000000000000000e+00 2.8700000000000001e+00 0.0000000000000000e+00
0.0000000000000000e+00 2.8700000000000001e+00 0.0000000000000000e+00
ITEM: ATOMS id type xs ys zs
1 1 0.00361233 -0.00624148 0.00231665
2 1 0.496388 0.506241 0.497683
ITEM: TIMESTEP
1700
ITEM: NUMBER OF ATOMS
2
ITEM: BOX BOUNDS xy xz yz pp pp pp
0.0000000000000000e+00 2.8700000000000001e+00 0.0000000000000000e+00
0.0000000000000000e+00 2.8700000000000001e+00 0.0000000000000000e+00
0.0000000000000000e+00 2.8700000000000001e+00 0.0000000000000000e+00
ITEM: ATOMS id type xs ys zs
1 1 0.0113219 -0.0156238 0.00901318
2 1 0.488678 0.515624 0.490987
ITEM: TIMESTEP
1800
ITEM: NUMBER OF ATOMS
2
ITEM: BOX BOUNDS xy xz yz pp pp pp
0.0000000000000000e+00 2.8700000000000001e+00 0.0000000000000000e+00
0.0000000000000000e+00 2.8700000000000001e+00 0.0000000000000000e+00
0.0000000000000000e+00 2.8700000000000001e+00 0.0000000000000000e+00
ITEM: ATOMS id type xs ys zs
1 1 0.0124882 -0.0136479 0.0108158
2 1 0.487512 0.513648 0.489184
ITEM: TIMESTEP
1900
ITEM: NUMBER OF ATOMS
2
ITEM: BOX BOUNDS xy xz yz pp pp pp
0.0000000000000000e+00 2.8700000000000001e+00 0.0000000000000000e+00
0.0000000000000000e+00 2.8700000000000001e+00 0.0000000000000000e+00
0.0000000000000000e+00 2.8700000000000001e+00 0.0000000000000000e+00
ITEM: ATOMS id type xs ys zs
1 1 0.00412806 -0.00193278 0.00424685
2 1 0.495872 0.501933 0.495753
ITEM: TIMESTEP
2000
ITEM: NUMBER OF ATOMS
2
ITEM: BOX BOUNDS xy xz yz pp pp pp
0.0000000000000000e+00 2.8700000000000001e+00 0.0000000000000000e+00
0.0000000000000000e+00 2.8700000000000001e+00 0.0000000000000000e+00
0.0000000000000000e+00 2.8700000000000001e+00 0.0000000000000000e+00
ITEM: ATOMS id type xs ys zs
1 1 -0.00413464 0.00597371 -0.003086
2 1 0.504135 0.494026 0.503086
ITEM: TIMESTEP
2100
ITEM: NUMBER OF ATOMS
2
ITEM: BOX BOUNDS xy xz yz pp pp pp
0.0000000000000000e+00 2.8700000000000001e+00 0.0000000000000000e+00
0.0000000000000000e+00 2.8700000000000001e+00 0.0000000000000000e+00
0.0000000000000000e+00 2.8700000000000001e+00 0.0000000000000000e+00
ITEM: ATOMS id type xs ys zs
1 1 -0.00861777 0.00828788 -0.00763384
2 1 0.508618 0.491712 0.507634
ITEM: TIMESTEP
2200
ITEM: NUMBER OF ATOMS
2
ITEM: BOX BOUNDS xy xz yz pp pp pp
0.0000000000000000e+00 2.8700000000000001e+00 0.0000000000000000e+00
0.0000000000000000e+00 2.8700000000000001e+00 0.0000000000000000e+00
0.0000000000000000e+00 2.8700000000000001e+00 0.0000000000000000e+00
ITEM: ATOMS id type xs ys zs
1 1 -0.00867224 0.00490107 -0.00883934
2 1 0.508672 0.495099 0.508839
ITEM: TIMESTEP
2300
ITEM: NUMBER OF ATOMS
2
ITEM: BOX BOUNDS xy xz yz pp pp pp
0.0000000000000000e+00 2.8700000000000001e+00 0.0000000000000000e+00
0.0000000000000000e+00 2.8700000000000001e+00 0.0000000000000000e+00
0.0000000000000000e+00 2.8700000000000001e+00 0.0000000000000000e+00
ITEM: ATOMS id type xs ys zs
1 1 0.00190076 -0.00552683 4.57856e-05
2 1 0.498099 0.505527 0.499954
ITEM: TIMESTEP
2400
ITEM: NUMBER OF ATOMS
2
ITEM: BOX BOUNDS xy xz yz pp pp pp
0.0000000000000000e+00 2.8700000000000001e+00 0.0000000000000000e+00
0.0000000000000000e+00 2.8700000000000001e+00 0.0000000000000000e+00
0.0000000000000000e+00 2.8700000000000001e+00 0.0000000000000000e+00
ITEM: ATOMS id type xs ys zs
1 1 0.0122254 -0.0110345 0.0108944
2 1 0.487775 0.511034 0.489106
ITEM: TIMESTEP
2500
ITEM: NUMBER OF ATOMS
2
ITEM: BOX BOUNDS xy xz yz pp pp pp
0.0000000000000000e+00 2.8700000000000001e+00 0.0000000000000000e+00
0.0000000000000000e+00 2.8700000000000001e+00 0.0000000000000000e+00
0.0000000000000000e+00 2.8700000000000001e+00 0.0000000000000000e+00
ITEM: ATOMS id type xs ys zs
1 1 0.0131946 -0.00863474 0.0136343
2 1 0.486805 0.508635 0.486366
ITEM: TIMESTEP
2600
ITEM: NUMBER OF ATOMS
2
ITEM: BOX BOUNDS xy xz yz pp pp pp
0.0000000000000000e+00 2.8700000000000001e+00 0.0000000000000000e+00
0.0000000000000000e+00 2.8700000000000001e+00 0.0000000000000000e+00
0.0000000000000000e+00 2.8700000000000001e+00 0.0000000000000000e+00
ITEM: ATOMS id type xs ys zs
1 1 0.0042433 -0.00148387 0.00513208
2 1 0.495757 0.501484 0.494868
ITEM: TIMESTEP
2700
ITEM: NUMBER OF ATOMS
2
ITEM: BOX BOUNDS xy xz yz pp pp pp
0.0000000000000000e+00 2.8700000000000001e+00 0.0000000000000000e+00
0.0000000000000000e+00 2.8700000000000001e+00 0.0000000000000000e+00
0.0000000000000000e+00 2.8700000000000001e+00 0.0000000000000000e+00
ITEM: ATOMS id type xs ys zs
1 1 -0.00296409 0.00256273 -0.00279494
2 1 0.502964 0.497437 0.502795
ITEM: TIMESTEP
2800
ITEM: NUMBER OF ATOMS
2
ITEM: BOX BOUNDS xy xz yz pp pp pp
0.0000000000000000e+00 2.8700000000000001e+00 0.0000000000000000e+00
0.0000000000000000e+00 2.8700000000000001e+00 0.0000000000000000e+00
0.0000000000000000e+00 2.8700000000000001e+00 0.0000000000000000e+00
ITEM: ATOMS id type xs ys zs
1 1 -0.00614839 0.00366344 -0.00667234
2 1 0.506148 0.496337 0.506672
ITEM: TIMESTEP
2900
ITEM: NUMBER OF ATOMS
2
ITEM: BOX BOUNDS xy xz yz pp pp pp
0.0000000000000000e+00 2.8700000000000001e+00 0.0000000000000000e+00
0.0000000000000000e+00 2.8700000000000001e+00 0.0000000000000000e+00
0.0000000000000000e+00 2.8700000000000001e+00 0.0000000000000000e+00
ITEM: ATOMS id type xs ys zs
1 1 -0.00325152 0.000963227 -0.00394458
2 1 0.503252 0.499037 0.503945
ITEM: TIMESTEP
3000
ITEM: NUMBER OF ATOMS
2
ITEM: BOX BOUNDS xy xz yz pp pp pp
0.0000000000000000e+00 2.8700000000000001e+00 0.0000000000000000e+00
0.0000000000000000e+00 2.8700000000000001e+00 0.0000000000000000e+00
0.0000000000000000e+00 2.8700000000000001e+00 0.0000000000000000e+00
ITEM: ATOMS id type xs ys zs
1 1 0.00554291 -0.00422124 0.00584541
2 1 0.494457 0.504221 0.494155
ITEM: TIMESTEP
3100
ITEM: NUMBER OF ATOMS
2
ITEM: BOX BOUNDS xy xz yz pp pp pp
0.0000000000000000e+00 2.8700000000000001e+00 0.0000000000000000e+00
0.0000000000000000e+00 2.8700000000000001e+00 0.0000000000000000e+00
0.0000000000000000e+00 2.8700000000000001e+00 0.0000000000000000e+00
ITEM: ATOMS id type xs ys zs
1 1 0.0136719 -0.00754309 0.0152847
2 1 0.486328 0.507543 0.484715
ITEM: TIMESTEP
3200
ITEM: NUMBER OF ATOMS
2
ITEM: BOX BOUNDS xy xz yz pp pp pp
0.0000000000000000e+00 2.8700000000000001e+00 0.0000000000000000e+00
0.0000000000000000e+00 2.8700000000000001e+00 0.0000000000000000e+00
0.0000000000000000e+00 2.8700000000000001e+00 0.0000000000000000e+00
ITEM: ATOMS id type xs ys zs
1 1 0.012632 -0.00557869 0.0136098
2 1 0.487368 0.505579 0.48639
ITEM: TIMESTEP
3300
ITEM: NUMBER OF ATOMS
2
ITEM: BOX BOUNDS xy xz yz pp pp pp
0.0000000000000000e+00 2.8700000000000001e+00 0.0000000000000000e+00
0.0000000000000000e+00 2.8700000000000001e+00 0.0000000000000000e+00
0.0000000000000000e+00 2.8700000000000001e+00 0.0000000000000000e+00
ITEM: ATOMS id type xs ys zs
1 1 0.00242345 -0.000254081 0.00125814
2 1 0.497577 0.500254 0.498742
ITEM: TIMESTEP
3400
ITEM: NUMBER OF ATOMS
2
ITEM: BOX BOUNDS xy xz yz pp pp pp
0.0000000000000000e+00 2.8700000000000001e+00 0.0000000000000000e+00
0.0000000000000000e+00 2.8700000000000001e+00 0.0000000000000000e+00
0.0000000000000000e+00 2.8700000000000001e+00 0.0000000000000000e+00
ITEM: ATOMS id type xs ys zs
1 1 -0.00856263 0.00434216 -0.00983958
2 1 0.508563 0.495658 0.50984
ITEM: TIMESTEP
3500
ITEM: NUMBER OF ATOMS
2
ITEM: BOX BOUNDS xy xz yz pp pp pp
0.0000000000000000e+00 2.8700000000000001e+00 0.0000000000000000e+00
0.0000000000000000e+00 2.8700000000000001e+00 0.0000000000000000e+00
0.0000000000000000e+00 2.8700000000000001e+00 0.0000000000000000e+00
ITEM: ATOMS id type xs ys zs
1 1 -0.00801026 0.00376598 -0.00796428
2 1 0.50801 0.496234 0.507964
ITEM: TIMESTEP
3600
ITEM: NUMBER OF ATOMS
2
ITEM: BOX BOUNDS xy xz yz pp pp pp
0.0000000000000000e+00 2.8700000000000001e+00 0.0000000000000000e+00
0.0000000000000000e+00 2.8700000000000001e+00 0.0000000000000000e+00
0.0000000000000000e+00 2.8700000000000001e+00 0.0000000000000000e+00
ITEM: ATOMS id type xs ys zs
1 1 -0.00354785 0.00166096 -0.00273809
2 1 0.503548 0.498339 0.502738
ITEM: TIMESTEP
3700
ITEM: NUMBER OF ATOMS
2
ITEM: BOX BOUNDS xy xz yz pp pp pp
0.0000000000000000e+00 2.8700000000000001e+00 0.0000000000000000e+00
0.0000000000000000e+00 2.8700000000000001e+00 0.0000000000000000e+00
0.0000000000000000e+00 2.8700000000000001e+00 0.0000000000000000e+00
ITEM: ATOMS id type xs ys zs
1 1 0.00662657 -0.00291805 0.00733332
2 1 0.493373 0.502918 0.492667
ITEM: TIMESTEP
3800
ITEM: NUMBER OF ATOMS
2
ITEM: BOX BOUNDS xy xz yz pp pp pp
0.0000000000000000e+00 2.8700000000000001e+00 0.0000000000000000e+00
0.0000000000000000e+00 2.8700000000000001e+00 0.0000000000000000e+00
0.0000000000000000e+00 2.8700000000000001e+00 0.0000000000000000e+00
ITEM: ATOMS id type xs ys zs
1 1 0.0164493 -0.00765973 0.015367
2 1 0.483551 0.50766 0.484633
ITEM: TIMESTEP
3900
ITEM: NUMBER OF ATOMS
2
ITEM: BOX BOUNDS xy xz yz pp pp pp
0.0000000000000000e+00 2.8700000000000001e+00 0.0000000000000000e+00
0.0000000000000000e+00 2.8700000000000001e+00 0.0000000000000000e+00
0.0000000000000000e+00 2.8700000000000001e+00 0.0000000000000000e+00
ITEM: ATOMS id type xs ys zs
1 1 0.0135104 -0.00748919 0.0116737
2 1 0.48649 0.507489 0.488326
ITEM: TIMESTEP
4000
ITEM: NUMBER OF ATOMS
2
ITEM: BOX BOUNDS xy xz yz pp pp pp
0.0000000000000000e+00 2.8700000000000001e+00 0.0000000000000000e+00
0.0000000000000000e+00 2.8700000000000001e+00 0.0000000000000000e+00
0.0000000000000000e+00 2.8700000000000001e+00 0.0000000000000000e+00
ITEM: ATOMS id type xs ys zs
1 1 0.00126906 -0.0027203 0.000982725
2 1 0.498731 0.50272 0.499017
ITEM: TIMESTEP
4100
ITEM: NUMBER OF ATOMS
2
ITEM: BOX BOUNDS xy xz yz pp pp pp
0.0000000000000000e+00 2.8700000000000001e+00 0.0000000000000000e+00
0.0000000000000000e+00 2.8700000000000001e+00 0.0000000000000000e+00
0.0000000000000000e+00 2.8700000000000001e+00 0.0000000000000000e+00
ITEM: ATOMS id type xs ys zs
1 1 -0.0096698 0.00377184 -0.00846646
2 1 0.50967 0.496228 0.508466
ITEM: TIMESTEP
4200
ITEM: NUMBER OF ATOMS
2
ITEM: BOX BOUNDS xy xz yz pp pp pp
0.0000000000000000e+00 2.8700000000000001e+00 0.0000000000000000e+00
0.0000000000000000e+00 2.8700000000000001e+00 0.0000000000000000e+00
0.0000000000000000e+00 2.8700000000000001e+00 0.0000000000000000e+00
ITEM: ATOMS id type xs ys zs
1 1 -0.00859327 0.00535486 -0.00787556
2 1 0.508593 0.494645 0.507876
ITEM: TIMESTEP
4300
ITEM: NUMBER OF ATOMS
2
ITEM: BOX BOUNDS xy xz yz pp pp pp
0.0000000000000000e+00 2.8700000000000001e+00 0.0000000000000000e+00
0.0000000000000000e+00 2.8700000000000001e+00 0.0000000000000000e+00
0.0000000000000000e+00 2.8700000000000001e+00 0.0000000000000000e+00
ITEM: ATOMS id type xs ys zs
1 1 -0.00245386 0.00304153 -0.00265246
2 1 0.502454 0.496958 0.502652
ITEM: TIMESTEP
4400
ITEM: NUMBER OF ATOMS
2
ITEM: BOX BOUNDS xy xz yz pp pp pp
0.0000000000000000e+00 2.8700000000000001e+00 0.0000000000000000e+00
0.0000000000000000e+00 2.8700000000000001e+00 0.0000000000000000e+00
0.0000000000000000e+00 2.8700000000000001e+00 0.0000000000000000e+00
ITEM: ATOMS id type xs ys zs
1 1 0.00722947 -0.00246173 0.00609196
2 1 0.492771 0.502462 0.493908
ITEM: TIMESTEP
4500
ITEM: NUMBER OF ATOMS
2
ITEM: BOX BOUNDS xy xz yz pp pp pp
0.0000000000000000e+00 2.8700000000000001e+00 0.0000000000000000e+00
0.0000000000000000e+00 2.8700000000000001e+00 0.0000000000000000e+00
0.0000000000000000e+00 2.8700000000000001e+00 0.0000000000000000e+00
ITEM: ATOMS id type xs ys zs
1 1 0.0164667 -0.0117183 0.0157902
2 1 0.483533 0.511718 0.48421
ITEM: TIMESTEP
4600
ITEM: NUMBER OF ATOMS
2
ITEM: BOX BOUNDS xy xz yz pp pp pp
0.0000000000000000e+00 2.8700000000000001e+00 0.0000000000000000e+00
0.0000000000000000e+00 2.8700000000000001e+00 0.0000000000000000e+00
0.0000000000000000e+00 2.8700000000000001e+00 0.0000000000000000e+00
ITEM: ATOMS id type xs ys zs
1 1 0.0113562 -0.0129508 0.012528
2 1 0.488644 0.512951 0.487472
ITEM: TIMESTEP
4700
ITEM: NUMBER OF ATOMS
2
ITEM: BOX BOUNDS xy xz yz pp pp pp
0.0000000000000000e+00 2.8700000000000001e+00 0.0000000000000000e+00
0.0000000000000000e+00 2.8700000000000001e+00 0.0000000000000000e+00
0.0000000000000000e+00 2.8700000000000001e+00 0.0000000000000000e+00
ITEM: ATOMS id type xs ys zs
1 1 0.000226716 -0.00507949 0.00175992
2 1 0.499773 0.505079 0.49824
ITEM: TIMESTEP
4800
ITEM: NUMBER OF ATOMS
2
ITEM: BOX BOUNDS xy xz yz pp pp pp
0.0000000000000000e+00 2.8700000000000001e+00 0.0000000000000000e+00
0.0000000000000000e+00 2.8700000000000001e+00 0.0000000000000000e+00
0.0000000000000000e+00 2.8700000000000001e+00 0.0000000000000000e+00
ITEM: ATOMS id type xs ys zs
1 1 -0.00714139 0.00502838 -0.00689161
2 1 0.507141 0.494972 0.506892
ITEM: TIMESTEP
4900
ITEM: NUMBER OF ATOMS
2
ITEM: BOX BOUNDS xy xz yz pp pp pp
0.0000000000000000e+00 2.8700000000000001e+00 0.0000000000000000e+00
0.0000000000000000e+00 2.8700000000000001e+00 0.0000000000000000e+00
0.0000000000000000e+00 2.8700000000000001e+00 0.0000000000000000e+00
ITEM: ATOMS id type xs ys zs
1 1 -0.00648447 0.00816599 -0.00733193
2 1 0.506484 0.491834 0.507332
ITEM: TIMESTEP
5000
ITEM: NUMBER OF ATOMS
2
ITEM: BOX BOUNDS xy xz yz pp pp pp
0.0000000000000000e+00 2.8700000000000001e+00 0.0000000000000000e+00
0.0000000000000000e+00 2.8700000000000001e+00 0.0000000000000000e+00
0.0000000000000000e+00 2.8700000000000001e+00 0.0000000000000000e+00
ITEM: ATOMS id type xs ys zs
1 1 -0.00111279 0.00342988 -0.00188339
2 1 0.501113 0.49657 0.501883
ITEM: TIMESTEP
5100
ITEM: NUMBER OF ATOMS
2
ITEM: BOX BOUNDS xy xz yz pp pp pp
0.0000000000000000e+00 2.8700000000000001e+00 0.0000000000000000e+00
0.0000000000000000e+00 2.8700000000000001e+00 0.0000000000000000e+00
0.0000000000000000e+00 2.8700000000000001e+00 0.0000000000000000e+00
ITEM: ATOMS id type xs ys zs
1 1 0.00342932 -0.00313264 0.00347606
2 1 0.496571 0.503133 0.496524
ITEM: TIMESTEP
5200
ITEM: NUMBER OF ATOMS
2
ITEM: BOX BOUNDS xy xz yz pp pp pp
0.0000000000000000e+00 2.8700000000000001e+00 0.0000000000000000e+00
0.0000000000000000e+00 2.8700000000000001e+00 0.0000000000000000e+00
0.0000000000000000e+00 2.8700000000000001e+00 0.0000000000000000e+00
ITEM: ATOMS id type xs ys zs
1 1 0.00595081 -0.00879539 0.00706979
2 1 0.494049 0.508795 0.49293
ITEM: TIMESTEP
5300
ITEM: NUMBER OF ATOMS
2
ITEM: BOX BOUNDS xy xz yz pp pp pp
0.0000000000000000e+00 2.8700000000000001e+00 0.0000000000000000e+00
0.0000000000000000e+00 2.8700000000000001e+00 0.0000000000000000e+00
0.0000000000000000e+00 2.8700000000000001e+00 0.0000000000000000e+00
ITEM: ATOMS id type xs ys zs
1 1 0.00226075 -0.00682223 0.00390014
2 1 0.497739 0.506822 0.4961
ITEM: TIMESTEP
5400
ITEM: NUMBER OF ATOMS
2
ITEM: BOX BOUNDS xy xz yz pp pp pp
0.0000000000000000e+00 2.8700000000000001e+00 0.0000000000000000e+00
0.0000000000000000e+00 2.8700000000000001e+00 0.0000000000000000e+00
0.0000000000000000e+00 2.8700000000000001e+00 0.0000000000000000e+00
ITEM: ATOMS id type xs ys zs
1 1 -0.00581424 0.00639761 -0.00571148
2 1 0.505814 0.493602 0.505711
ITEM: TIMESTEP
5500
ITEM: NUMBER OF ATOMS
2
ITEM: BOX BOUNDS xy xz yz pp pp pp
0.0000000000000000e+00 2.8700000000000001e+00 0.0000000000000000e+00
0.0000000000000000e+00 2.8700000000000001e+00 0.0000000000000000e+00
0.0000000000000000e+00 2.8700000000000001e+00 0.0000000000000000e+00
ITEM: ATOMS id type xs ys zs
1 1 -0.0111424 0.0186536 -0.0135414
2 1 0.511142 0.481346 0.513541
ITEM: TIMESTEP
5600
ITEM: NUMBER OF ATOMS
2
ITEM: BOX BOUNDS xy xz yz pp pp pp
0.0000000000000000e+00 2.8700000000000001e+00 0.0000000000000000e+00
0.0000000000000000e+00 2.8700000000000001e+00 0.0000000000000000e+00
0.0000000000000000e+00 2.8700000000000001e+00 0.0000000000000000e+00
ITEM: ATOMS id type xs ys zs
1 1 -0.00930262 0.0158919 -0.012584
2 1 0.509303 0.484108 0.512584
ITEM: TIMESTEP
5700
ITEM: NUMBER OF ATOMS
2
ITEM: BOX BOUNDS xy xz yz pp pp pp
0.0000000000000000e+00 2.8700000000000001e+00 0.0000000000000000e+00
0.0000000000000000e+00 2.8700000000000001e+00 0.0000000000000000e+00
0.0000000000000000e+00 2.8700000000000001e+00 0.0000000000000000e+00
ITEM: ATOMS id type xs ys zs
1 1 -0.00198654 0.00229148 -0.00317095
2 1 0.501987 0.497709 0.503171
ITEM: TIMESTEP
5800
ITEM: NUMBER OF ATOMS
2
ITEM: BOX BOUNDS xy xz yz pp pp pp
0.0000000000000000e+00 2.8700000000000001e+00 0.0000000000000000e+00
0.0000000000000000e+00 2.8700000000000001e+00 0.0000000000000000e+00
0.0000000000000000e+00 2.8700000000000001e+00 0.0000000000000000e+00
ITEM: ATOMS id type xs ys zs
1 1 0.00335365 -0.006511 0.00423351
2 1 0.496646 0.506511 0.495766
ITEM: TIMESTEP
5900
ITEM: NUMBER OF ATOMS
2
ITEM: BOX BOUNDS xy xz yz pp pp pp
0.0000000000000000e+00 2.8700000000000001e+00 0.0000000000000000e+00
0.0000000000000000e+00 2.8700000000000001e+00 0.0000000000000000e+00
0.0000000000000000e+00 2.8700000000000001e+00 0.0000000000000000e+00
ITEM: ATOMS id type xs ys zs
1 1 0.00722706 -0.0111211 0.00993932
2 1 0.492773 0.511121 0.490061
ITEM: TIMESTEP
6000
ITEM: NUMBER OF ATOMS
2
ITEM: BOX BOUNDS xy xz yz pp pp pp
0.0000000000000000e+00 2.8700000000000001e+00 0.0000000000000000e+00
0.0000000000000000e+00 2.8700000000000001e+00 0.0000000000000000e+00
0.0000000000000000e+00 2.8700000000000001e+00 0.0000000000000000e+00
ITEM: ATOMS id type xs ys zs
1 1 0.00616946 -0.00605633 0.00867319
2 1 0.493831 0.506056 0.491327
ITEM: TIMESTEP
6100
ITEM: NUMBER OF ATOMS
2
ITEM: BOX BOUNDS xy xz yz pp pp pp
0.0000000000000000e+00 2.8700000000000001e+00 0.0000000000000000e+00
0.0000000000000000e+00 2.8700000000000001e+00 0.0000000000000000e+00
0.0000000000000000e+00 2.8700000000000001e+00 0.0000000000000000e+00
ITEM: ATOMS id type xs ys zs
1 1 -0.00113869 0.00568513 -0.00208766
2 1 0.501139 0.494315 0.502088
ITEM: TIMESTEP
6200
ITEM: NUMBER OF ATOMS
2
ITEM: BOX BOUNDS xy xz yz pp pp pp
0.0000000000000000e+00 2.8700000000000001e+00 0.0000000000000000e+00
0.0000000000000000e+00 2.8700000000000001e+00 0.0000000000000000e+00
0.0000000000000000e+00 2.8700000000000001e+00 0.0000000000000000e+00
ITEM: ATOMS id type xs ys zs
1 1 -0.00878929 0.012972 -0.0129799
2 1 0.508789 0.487028 0.51298
ITEM: TIMESTEP
6300
ITEM: NUMBER OF ATOMS
2
ITEM: BOX BOUNDS xy xz yz pp pp pp
0.0000000000000000e+00 2.8700000000000001e+00 0.0000000000000000e+00
0.0000000000000000e+00 2.8700000000000001e+00 0.0000000000000000e+00
0.0000000000000000e+00 2.8700000000000001e+00 0.0000000000000000e+00
ITEM: ATOMS id type xs ys zs
1 1 -0.0118254 0.0116532 -0.0156744
2 1 0.511825 0.488347 0.515674
ITEM: TIMESTEP
6400
ITEM: NUMBER OF ATOMS
2
ITEM: BOX BOUNDS xy xz yz pp pp pp
0.0000000000000000e+00 2.8700000000000001e+00 0.0000000000000000e+00
0.0000000000000000e+00 2.8700000000000001e+00 0.0000000000000000e+00
0.0000000000000000e+00 2.8700000000000001e+00 0.0000000000000000e+00
ITEM: ATOMS id type xs ys zs
1 1 -0.00708355 0.00350997 -0.00714288
2 1 0.507084 0.49649 0.507143
ITEM: TIMESTEP
6500
ITEM: NUMBER OF ATOMS
2
ITEM: BOX BOUNDS xy xz yz pp pp pp
0.0000000000000000e+00 2.8700000000000001e+00 0.0000000000000000e+00
0.0000000000000000e+00 2.8700000000000001e+00 0.0000000000000000e+00
0.0000000000000000e+00 2.8700000000000001e+00 0.0000000000000000e+00
ITEM: ATOMS id type xs ys zs
1 1 0.00187939 -0.00443665 0.00459224
2 1 0.498121 0.504437 0.495408
ITEM: TIMESTEP
6600
ITEM: NUMBER OF ATOMS
2
ITEM: BOX BOUNDS xy xz yz pp pp pp
0.0000000000000000e+00 2.8700000000000001e+00 0.0000000000000000e+00
0.0000000000000000e+00 2.8700000000000001e+00 0.0000000000000000e+00
0.0000000000000000e+00 2.8700000000000001e+00 0.0000000000000000e+00
ITEM: ATOMS id type xs ys zs
1 1 0.00833555 -0.00750206 0.0104836
2 1 0.491664 0.507502 0.489516
ITEM: TIMESTEP
6700
ITEM: NUMBER OF ATOMS
2
ITEM: BOX BOUNDS xy xz yz pp pp pp
0.0000000000000000e+00 2.8700000000000001e+00 0.0000000000000000e+00
0.0000000000000000e+00 2.8700000000000001e+00 0.0000000000000000e+00
0.0000000000000000e+00 2.8700000000000001e+00 0.0000000000000000e+00
ITEM: ATOMS id type xs ys zs
1 1 0.0101826 -0.00612282 0.00962102
2 1 0.489817 0.506123 0.490379
ITEM: TIMESTEP
6800
ITEM: NUMBER OF ATOMS
2
ITEM: BOX BOUNDS xy xz yz pp pp pp
0.0000000000000000e+00 2.8700000000000001e+00 0.0000000000000000e+00
0.0000000000000000e+00 2.8700000000000001e+00 0.0000000000000000e+00
0.0000000000000000e+00 2.8700000000000001e+00 0.0000000000000000e+00
ITEM: ATOMS id type xs ys zs
1 1 0.00512892 -1.78605e-05 0.000730448
2 1 0.494871 0.500018 0.49927
ITEM: TIMESTEP
6900
ITEM: NUMBER OF ATOMS
2
ITEM: BOX BOUNDS xy xz yz pp pp pp
0.0000000000000000e+00 2.8700000000000001e+00 0.0000000000000000e+00
0.0000000000000000e+00 2.8700000000000001e+00 0.0000000000000000e+00
0.0000000000000000e+00 2.8700000000000001e+00 0.0000000000000000e+00
ITEM: ATOMS id type xs ys zs
1 1 -0.00849721 0.0072039 -0.0108318
2 1 0.508497 0.492796 0.510832
ITEM: TIMESTEP
7000
ITEM: NUMBER OF ATOMS
2
ITEM: BOX BOUNDS xy xz yz pp pp pp
0.0000000000000000e+00 2.8700000000000001e+00 0.0000000000000000e+00
0.0000000000000000e+00 2.8700000000000001e+00 0.0000000000000000e+00
0.0000000000000000e+00 2.8700000000000001e+00 0.0000000000000000e+00
ITEM: ATOMS id type xs ys zs
1 1 -0.0153546 0.00903286 -0.0130738
2 1 0.515355 0.490967 0.513074
ITEM: TIMESTEP
7100
ITEM: NUMBER OF ATOMS
2
ITEM: BOX BOUNDS xy xz yz pp pp pp
0.0000000000000000e+00 2.8700000000000001e+00 0.0000000000000000e+00
0.0000000000000000e+00 2.8700000000000001e+00 0.0000000000000000e+00
0.0000000000000000e+00 2.8700000000000001e+00 0.0000000000000000e+00
ITEM: ATOMS id type xs ys zs
1 1 -0.0123477 0.00683192 -0.00905147
2 1 0.512348 0.493168 0.509051
ITEM: TIMESTEP
7200
ITEM: NUMBER OF ATOMS
2
ITEM: BOX BOUNDS xy xz yz pp pp pp
0.0000000000000000e+00 2.8700000000000001e+00 0.0000000000000000e+00
0.0000000000000000e+00 2.8700000000000001e+00 0.0000000000000000e+00
0.0000000000000000e+00 2.8700000000000001e+00 0.0000000000000000e+00
ITEM: ATOMS id type xs ys zs
1 1 -0.00214667 0.00168416 -0.0012425
2 1 0.502147 0.498316 0.501243
ITEM: TIMESTEP
7300
ITEM: NUMBER OF ATOMS
2
ITEM: BOX BOUNDS xy xz yz pp pp pp
0.0000000000000000e+00 2.8700000000000001e+00 0.0000000000000000e+00
0.0000000000000000e+00 2.8700000000000001e+00 0.0000000000000000e+00
0.0000000000000000e+00 2.8700000000000001e+00 0.0000000000000000e+00
ITEM: ATOMS id type xs ys zs
1 1 0.0107566 -0.00517217 0.0078997
2 1 0.489243 0.505172 0.4921
ITEM: TIMESTEP
7400
ITEM: NUMBER OF ATOMS
2
ITEM: BOX BOUNDS xy xz yz pp pp pp
0.0000000000000000e+00 2.8700000000000001e+00 0.0000000000000000e+00
0.0000000000000000e+00 2.8700000000000001e+00 0.0000000000000000e+00
0.0000000000000000e+00 2.8700000000000001e+00 0.0000000000000000e+00
ITEM: ATOMS id type xs ys zs
1 1 0.0182327 -0.0109726 0.0142886
2 1 0.481767 0.510973 0.485711
ITEM: TIMESTEP
7500
ITEM: NUMBER OF ATOMS
2
ITEM: BOX BOUNDS xy xz yz pp pp pp
0.0000000000000000e+00 2.8700000000000001e+00 0.0000000000000000e+00
0.0000000000000000e+00 2.8700000000000001e+00 0.0000000000000000e+00
0.0000000000000000e+00 2.8700000000000001e+00 0.0000000000000000e+00
ITEM: ATOMS id type xs ys zs
1 1 0.015956 -0.0135764 0.0154627
2 1 0.484044 0.513576 0.484537
ITEM: TIMESTEP
7600
ITEM: NUMBER OF ATOMS
2
ITEM: BOX BOUNDS xy xz yz pp pp pp
0.0000000000000000e+00 2.8700000000000001e+00 0.0000000000000000e+00
0.0000000000000000e+00 2.8700000000000001e+00 0.0000000000000000e+00
0.0000000000000000e+00 2.8700000000000001e+00 0.0000000000000000e+00
ITEM: ATOMS id type xs ys zs
1 1 0.00345427 -0.00871489 0.00763908
2 1 0.496546 0.508715 0.492361
ITEM: TIMESTEP
7700
ITEM: NUMBER OF ATOMS
2
ITEM: BOX BOUNDS xy xz yz pp pp pp
0.0000000000000000e+00 2.8700000000000001e+00 0.0000000000000000e+00
0.0000000000000000e+00 2.8700000000000001e+00 0.0000000000000000e+00
0.0000000000000000e+00 2.8700000000000001e+00 0.0000000000000000e+00
ITEM: ATOMS id type xs ys zs
1 1 -0.00665405 0.00234938 -0.00427496
2 1 0.506654 0.497651 0.504275
ITEM: TIMESTEP
7800
ITEM: NUMBER OF ATOMS
2
ITEM: BOX BOUNDS xy xz yz pp pp pp
0.0000000000000000e+00 2.8700000000000001e+00 0.0000000000000000e+00