ITEM: TIMESTEP
0
ITEM: NUMBER OF ATOMS
16
ITEM: BOX BOUNDS xy xz yz pp pp pp
0.0000000000000000e+00 5.7400000000000002e+00 0.0000000000000000e+00
0.0000000000000000e+00 5.7400000000000002e+00 0.0000000000000000e+00
0.0000000000000000e+00 5.7400000000000002e+00 0.0000000000000000e+00
ITEM: ATOMS id type xs ys zs
1 1 0 0 0
9 1 0.25 0.25 0.25
5 1 0 0 0.5
13 1 0.25 0.25 0.75
3 1 0 0.5 0
11 1 0.25 0.75 0.25
7 1 0 0.5 0.5
15 1 0.25 0.75 0.75
2 1 0.5 0 0
10 1 0.75 0.25 0.25
6 1 0.5 0 0.5
14 1 0.75 0.25 0.75
4 1 0.5 0.5 0
12 1 0.75 0.75 0.25
8 1 0.5 0.5 0.5
16 1 0.75 0.75 0.75
ITEM: TIMESTEP
100
ITEM: NUMBER OF ATOMS
16
ITEM: BOX BOUNDS xy xz yz pp pp pp
0.0000000000000000e+00 5.7400000000000002e+00 0.0000000000000000e+00
0.0000000000000000e+00 5.7400000000000002e+00 0.0000000000000000e+00
0.0000000000000000e+00 5.7400000000000002e+00 0.0000000000000000e+00
ITEM: ATOMS id type xs ys zs
1 1 -0.00959391 -0.01102 0.00629601
9 1 0.250403 0.251847 0.253181
5 1 0.00452164 0.00118472 0.498645
13 1 0.253516 0.246206 0.753048
3 1 -0.0101608 0.493562 -0.00331629
11 1 0.248712 0.755598 0.255935
7 1 0.0106442 0.506584 0.506562
15 1 0.261849 0.754145 0.755154
2 1 0.503756 -0.0019272 0.000992458
10 1 0.754154 0.266769 0.246153
6 1 0.507859 0.0030163 0.4842
14 1 0.74243 0.241018 0.738433
4 1 0.485626 0.510735 0.00350575
12 1 0.75547 0.743492 0.263424
8 1 0.490327 0.503085 0.492628
16 1 0.750486 0.735706 0.745159
ITEM: TIMESTEP
200
ITEM: NUMBER OF ATOMS
16
ITEM: BOX BOUNDS xy xz yz pp pp pp
0.0000000000000000e+00 5.7400000000000002e+00 0.0000000000000000e+00
0.0000000000000000e+00 5.7400000000000002e+00 0.0000000000000000e+00
0.0000000000000000e+00 5.7400000000000002e+00 0.0000000000000000e+00
ITEM: ATOMS id type xs ys zs
1 1 0.0116677 0.0181238 -0.0054799
9 1 0.254188 0.244098 0.256291
5 1 -0.0151151 -0.008738 0.491736
13 1 0.254967 0.264556 0.7443
3 1 0.0109539 0.510913 0.00342753
11 1 0.261746 0.740501 0.246427
7 1 -0.0190959 0.496685 0.479493
15 1 0.239539 0.737514 0.739631
2 1 0.483782 -0.00191034 -0.00403844
10 1 0.744752 0.224927 0.260425
6 1 0.479972 -0.00357697 0.520072
14 1 0.770012 0.262742 0.76694
4 1 0.515225 0.493818 0.002053
12 1 0.748273 0.751959 0.235502
8 1 0.509529 0.496751 0.505414
16 1 0.749606 0.771637 0.757807
ITEM: TIMESTEP
300
ITEM: NUMBER OF ATOMS
16
ITEM: BOX BOUNDS xy xz yz pp pp pp
0.0000000000000000e+00 5.7400000000000002e+00 0.0000000000000000e+00
0.0000000000000000e+00 5.7400000000000002e+00 0.0000000000000000e+00
0.0000000000000000e+00 5.7400000000000002e+00 0.0000000000000000e+00
ITEM: ATOMS id type xs ys zs
1 1 -0.0169483 -0.0101382 -0.00204774
9 1 0.243779 0.256664 0.236535
5 1 0.00789538 0.0123986 0.509815
13 1 0.249432 0.232487 0.767927
3 1 -0.00640605 0.492901 -0.00820943
11 1 0.242979 0.759557 0.25246
7 1 0.0134757 0.495815 0.520442
15 1 0.2608 0.767539 0.761794
2 1 0.514161 0.00253241 0.000117212
10 1 0.75502 0.262008 0.246556
6 1 0.507915 0.00503594 0.482598
14 1 0.741969 0.2424 0.741056
4 1 0.485119 0.499176 -0.00910055
12 1 0.759415 0.746961 0.251109
8 1 0.489256 0.501467 0.498453
16 1 0.752138 0.733196 0.750495
ITEM: TIMESTEP
400
ITEM: NUMBER OF ATOMS
16
ITEM: BOX BOUNDS xy xz yz pp pp pp
0.0000000000000000e+00 5.7400000000000002e+00 0.0000000000000000e+00
0.0000000000000000e+00 5.7400000000000002e+00 0.0000000000000000e+00
0.0000000000000000e+00 5.7400000000000002e+00 0.0000000000000000e+00
ITEM: ATOMS id type xs ys zs
1 1 0.00835573 -0.00568248 0.00134993
9 1 0.254467 0.249085 0.258404
5 1 0.00760314 -0.0016739 0.497266
13 1 0.24198 0.257433 0.746811
3 1 -0.00212192 0.496597 0.0011552
11 1 0.250782 0.741582 0.25142
7 1 7.02824e-06 0.497489 0.491862
15 1 0.246232 0.746853 0.743526
2 1 0.499806 0.00450656 0.0024236
10 1 0.745934 0.250805 0.246707
6 1 0.502287 -0.00484445 0.500101
14 1 0.749176 0.253335 0.743579
4 1 0.497561 0.501644 0.00159836
12 1 0.744385 0.760071 0.256727
8 1 0.506584 0.504384 0.501086
16 1 0.746963 0.748416 0.755985
ITEM: TIMESTEP
500
ITEM: NUMBER OF ATOMS
16
ITEM: BOX BOUNDS xy xz yz pp pp pp
0.0000000000000000e+00 5.7400000000000002e+00 0.0000000000000000e+00
0.0000000000000000e+00 5.7400000000000002e+00 0.0000000000000000e+00
0.0000000000000000e+00 5.7400000000000002e+00 0.0000000000000000e+00
ITEM: ATOMS id type xs ys zs
1 1 0.0140081 0.0166855 0.00215335
9 1 0.2455 0.250037 0.257816
5 1 -0.0114164 -0.0136747 0.488453
13 1 0.252548 0.267589 0.735547
3 1 0.017865 0.513313 0.00768789
11 1 0.2571 0.749358 0.245193
7 1 -0.00578766 0.500823 0.488451
15 1 0.23738 0.739526 0.738652
2 1 0.495444 -0.0127226 0.00367448
10 1 0.736594 0.230939 0.261572
6 1 0.486161 -0.00474612 0.510436
14 1 0.7618 0.261772 0.76526
4 1 0.525624 0.49577 0.0090265
12 1 0.741516 0.739288 0.243765
8 1 0.505129 0.496646 0.499916
16 1 0.740535 0.769396 0.742396
ITEM: TIMESTEP
600
ITEM: NUMBER OF ATOMS
16
ITEM: BOX BOUNDS xy xz yz pp pp pp
0.0000000000000000e+00 5.7400000000000002e+00 0.0000000000000000e+00
0.0000000000000000e+00 5.7400000000000002e+00 0.0000000000000000e+00
0.0000000000000000e+00 5.7400000000000002e+00 0.0000000000000000e+00
ITEM: ATOMS id type xs ys zs
1 1 -0.0160506 -0.013597 0.0050218
9 1 0.242284 0.251695 0.237929
5 1 0.0152961 0.00826182 0.508291
13 1 0.245697 0.233282 0.763344
3 1 -0.00943916 0.483804 -0.00950186
11 1 0.23897 0.763329 0.252395
7 1 0.0226326 0.502846 0.523311
15 1 0.26059 0.765048 0.763615
2 1 0.516896 -0.000596073 0.00226397
10 1 0.755193 0.271481 0.239884
6 1 0.520299 0.00700022 0.481207
14 1 0.733783 0.235554 0.736066
4 1 0.48307 0.509725 -0.00165673
12 1 0.755072 0.747626 0.255269
8 1 0.488259 0.501198 0.498201
16 1 0.747448 0.733344 0.744361
ITEM: TIMESTEP
700
ITEM: NUMBER OF ATOMS
16
ITEM: BOX BOUNDS xy xz yz pp pp pp
0.0000000000000000e+00 5.7400000000000002e+00 0.0000000000000000e+00
0.0000000000000000e+00 5.7400000000000002e+00 0.0000000000000000e+00
0.0000000000000000e+00 5.7400000000000002e+00 0.0000000000000000e+00
ITEM: ATOMS id type xs ys zs
1 1 0.0135357 0.00927123 -0.00447653
9 1 0.256293 0.24352 0.254268
5 1 -0.00283204 -0.00262911 0.50214
13 1 0.244473 0.259877 0.749852
3 1 0.00224901 0.502997 0.000585623
11 1 0.257537 0.735189 0.248245
7 1 -0.0138582 0.494472 0.485773
15 1 0.239739 0.738498 0.739243
2 1 0.490954 0.00807861 -0.00399405
10 1 0.744929 0.234419 0.246616
6 1 0.489362 -0.00308258 0.516116
14 1 0.763627 0.256865 0.752727
4 1 0.503334 0.494336 -0.00263233
12 1 0.743868 0.767487 0.240111
8 1 0.514939 0.500933 0.507352
16 1 0.751849 0.759769 0.768075
ITEM: TIMESTEP
800
ITEM: NUMBER OF ATOMS
16
ITEM: BOX BOUNDS xy xz yz pp pp pp
0.0000000000000000e+00 5.7400000000000002e+00 0.0000000000000000e+00
0.0000000000000000e+00 5.7400000000000002e+00 0.0000000000000000e+00
0.0000000000000000e+00 5.7400000000000002e+00 0.0000000000000000e+00
ITEM: ATOMS id type xs ys zs
1 1 -0.0121435 0.00485371 -0.00216533
9 1 0.243601 0.257463 0.24731
5 1 -0.0102388 0.00337316 0.497132
13 1 0.260864 0.249154 0.748223
3 1 0.0107229 0.513068 -0.00176996
11 1 0.254699 0.754108 0.250114
7 1 0.00321518 0.498077 0.504917
15 1 0.253383 0.755424 0.745936
2 1 0.503003 -0.00642313 0.00551686
10 1 0.747038 0.242699 0.266115
6 1 0.49039 -0.00131316 0.490594
14 1 0.758248 0.257542 0.758648
4 1 0.506373 0.495021 0.00429907
12 1 0.756126 0.728996 0.250091
8 1 0.488149 0.50117 0.498069
16 1 0.74657 0.746786 0.73697
ITEM: TIMESTEP
900
ITEM: NUMBER OF ATOMS
16
ITEM: BOX BOUNDS xy xz yz pp pp pp
0.0000000000000000e+00 5.7400000000000002e+00 0.0000000000000000e+00
0.0000000000000000e+00 5.7400000000000002e+00 0.0000000000000000e+00
0.0000000000000000e+00 5.7400000000000002e+00 0.0000000000000000e+00
ITEM: ATOMS id type xs ys zs
1 1 -0.00824781 -0.0172905 0.00692722
9 1 0.25741 0.248294 0.25721
5 1 0.0115333 0.00283413 0.499936
13 1 0.248147 0.241884 0.749202
3 1 -0.0187078 0.487477 -0.00754257
11 1 0.249353 0.751896 0.258363
7 1 0.00863803 0.504502 0.50136
15 1 0.259332 0.747815 0.761403
2 1 0.499899 0.00489599 0.00101761
10 1 0.75828 0.268973 0.23802
6 1 0.513122 0.00109042 0.488781
14 1 0.741491 0.236812 0.736603
4 1 0.479865 0.515079 0.00313024
12 1 0.752224 0.759195 0.262159
8 1 0.494175 0.507584 0.492416
16 1 0.753487 0.738959 0.751016
ITEM: TIMESTEP
1000
ITEM: NUMBER OF ATOMS
16
ITEM: BOX BOUNDS xy xz yz pp pp pp
0.0000000000000000e+00 5.7400000000000002e+00 0.0000000000000000e+00
0.0000000000000000e+00 5.7400000000000002e+00 0.0000000000000000e+00
0.0000000000000000e+00 5.7400000000000002e+00 0.0000000000000000e+00
ITEM: ATOMS id type xs ys zs
1 1 0.0169426 0.0173502 -0.00625374
9 1 0.254592 0.240143 0.259956
5 1 -0.013036 -0.0090929 0.497127
13 1 0.248302 0.268276 0.750623
3 1 0.00701501 0.508383 -0.000595251
11 1 0.258758 0.744376 0.241768
7 1 -0.0152458 0.497077 0.486413
15 1 0.237714 0.741101 0.740261
2 1 0.491211 -0.00320091 -0.00479912
10 1 0.743711 0.228296 0.247593
6 1 0.48374 -0.00141713 0.519992
14 1 0.767816 0.254985 0.760871
4 1 0.513745 0.494496 -0.000982628
12 1 0.741681 0.757937 0.23963
8 1 0.511503 0.491431 0.502788
16 1 0.751551 0.769861 0.765609
ITEM: TIMESTEP
1100
ITEM: NUMBER OF ATOMS
16
ITEM: BOX BOUNDS xy xz yz pp pp pp
0.0000000000000000e+00 5.7400000000000002e+00 0.0000000000000000e+00
0.0000000000000000e+00 5.7400000000000002e+00 0.0000000000000000e+00
0.0000000000000000e+00 5.7400000000000002e+00 0.0000000000000000e+00
ITEM: ATOMS id type xs ys zs
1 1 -0.0192848 -0.0017401 -0.00559137
9 1 0.2365 0.261444 0.232725
5 1 0.000617436 0.00780543 0.505975
13 1 0.25561 0.240758 0.761008
3 1 0.0107647 0.499101 -0.0121925
11 1 0.244765 0.767928 0.250781
7 1 0.0157156 0.49301 0.522838
15 1 0.25441 0.766921 0.754877
2 1 0.516419 -0.0079134 0.0053063
10 1 0.745634 0.255581 0.265156
6 1 0.503963 0.0048384 0.481342
14 1 0.744865 0.252288 0.753496
4 1 0.502156 0.495052 -0.000156123
12 1 0.75757 0.727234 0.245112
8 1 0.484826 0.496828 0.500871
16 1 0.74547 0.740865 0.738452
ITEM: TIMESTEP
1200
ITEM: NUMBER OF ATOMS
16
ITEM: BOX BOUNDS xy xz yz pp pp pp
0.0000000000000000e+00 5.7400000000000002e+00 0.0000000000000000e+00
0.0000000000000000e+00 5.7400000000000002e+00 0.0000000000000000e+00
0.0000000000000000e+00 5.7400000000000002e+00 0.0000000000000000e+00
ITEM: ATOMS id type xs ys zs
1 1 0.0139896 -0.0156943 0.00743003
9 1 0.262683 0.250255 0.264433
5 1 0.018454 0.00153961 0.503167
13 1 0.235284 0.256195 0.742376
3 1 -0.01245 0.488342 0.000263634
11 1 0.250016 0.734851 0.262855
7 1 -0.00470758 0.497248 0.48676
15 1 0.243504 0.734217 0.747582
2 1 0.495614 0.0133407 0.00257055
10 1 0.749616 0.257782 0.234889
6 1 0.510499 -0.00783618 0.50558
14 1 0.746699 0.249918 0.729107
4 1 0.489393 0.507658 0.00165639
12 1 0.737258 0.776428 0.252638
8 1 0.513613 0.508058 0.497601
16 1 0.750536 0.747697 0.76109
ITEM: TIMESTEP
1300
ITEM: NUMBER OF ATOMS
16
ITEM: BOX BOUNDS xy xz yz pp pp pp
0.0000000000000000e+00 5.7400000000000002e+00 0.0000000000000000e+00
0.0000000000000000e+00 5.7400000000000002e+00 0.0000000000000000e+00
0.0000000000000000e+00 5.7400000000000002e+00 0.0000000000000000e+00
ITEM: ATOMS id type xs ys zs
1 1 0.0110553 0.0115583 0.00158636
9 1 0.244248 0.246689 0.257284
5 1 -0.0171897 -0.00374231 0.494843
13 1 0.252066 0.25962 0.744614
3 1 0.016122 0.518668 0.00467142
11 1 0.255701 0.749204 0.236288
7 1 0.00109116 0.499277 0.500255
15 1 0.24317 0.753315 0.737382
2 1 0.50723 -0.0106894 0.00160633
10 1 0.741216 0.232935 0.25368
6 1 0.482534 -0.00451056 0.502827
14 1 0.757063 0.257726 0.761247
4 1 0.517562 0.494705 0.00681355
12 1 0.744581 0.740013 0.251912
8 1 0.498008 0.49739 0.498265
16 1 0.745541 0.757842 0.746726
ITEM: TIMESTEP
1400
ITEM: NUMBER OF ATOMS
16
ITEM: BOX BOUNDS xy xz yz pp pp pp
0.0000000000000000e+00 5.7400000000000002e+00 0.0000000000000000e+00
0.0000000000000000e+00 5.7400000000000002e+00 0.0000000000000000e+00
0.0000000000000000e+00 5.7400000000000002e+00 0.0000000000000000e+00
ITEM: ATOMS id type xs ys zs
1 1 -0.0195593 -0.00249274 -0.00204683
9 1 0.243182 0.253697 0.235241
5 1 0.00878526 0.00496139 0.505496
13 1 0.254531 0.235436 0.754476
3 1 -0.00351172 0.49044 -0.0163694
11 1 0.24731 0.766159 0.249744
7 1 0.013036 0.500702 0.519197
15 1 0.253045 0.758823 0.764868
2 1 0.506587 -0.00371097 0.00378375
10 1 0.750418 0.257733 0.253241
6 1 0.51237 0.00946931 0.487899
14 1 0.74605 0.2397 0.755707
4 1 0.494137 0.504587 0.00153732
12 1 0.758463 0.738647 0.245289
8 1 0.486382 0.502578 0.500707
16 1 0.748775 0.743271 0.741229
ITEM: TIMESTEP
1500
ITEM: NUMBER OF ATOMS
16
ITEM: BOX BOUNDS xy xz yz pp pp pp
0.0000000000000000e+00 5.7400000000000002e+00 0.0000000000000000e+00
0.0000000000000000e+00 5.7400000000000002e+00 0.0000000000000000e+00
0.0000000000000000e+00 5.7400000000000002e+00 0.0000000000000000e+00
ITEM: ATOMS id type xs ys zs
1 1 0.0158866 0.00345981 -0.00134819
9 1 0.26624 0.241253 0.26284
5 1 0.00263743 -0.00111301 0.503944
13 1 0.239733 0.261719 0.750718
3 1 -0.0119408 0.492791 -0.00163048
11 1 0.258639 0.733582 0.25965
7 1 -0.0169031 0.500617 0.483222
15 1 0.241874 0.728427 0.746715
2 1 0.490915 0.0127032 -0.0065934
10 1 0.750957 0.247923 0.237161
6 1 0.498413 -0.000554836 0.512333
14 1 0.760864 0.249247 0.738067
4 1 0.493204 0.503282 -0.00423669
12 1 0.740602 0.773242 0.246463
8 1 0.512554 0.497367 0.501348
16 1 0.756326 0.756055 0.771349
ITEM: TIMESTEP
1600
ITEM: NUMBER OF ATOMS
16
ITEM: BOX BOUNDS xy xz yz pp pp pp
0.0000000000000000e+00 5.7400000000000002e+00 0.0000000000000000e+00
0.0000000000000000e+00 5.7400000000000002e+00 0.0000000000000000e+00
0.0000000000000000e+00 5.7400000000000002e+00 0.0000000000000000e+00
ITEM: ATOMS id type xs ys zs
1 1 -0.0137376 0.00702678 -0.00560177
9 1 0.240947 0.255275 0.247896
5 1 -0.017814 0.00292823 0.494313
13 1 0.261414 0.250998 0.75277
3 1 0.0144197 0.519479 -0.0015521
11 1 0.253044 0.755878 0.243644
7 1 0.00962626 0.495233 0.511103
15 1 0.256852 0.765216 0.739724
2 1 0.511907 -0.0123306 0.00578759
10 1 0.746666 0.245922 0.27159
6 1 0.483396 -0.00269708 0.48437
14 1 0.755456 0.25719 0.759891
4 1 0.508014 0.492223 0.00554852
12 1 0.755431 0.723031 0.257757
8 1 0.485711 0.49966 0.495327
16 1 0.748669 0.744968 0.737433
ITEM: TIMESTEP
1700
ITEM: NUMBER OF ATOMS
16
ITEM: BOX BOUNDS xy xz yz pp pp pp
0.0000000000000000e+00 5.7400000000000002e+00 0.0000000000000000e+00
0.0000000000000000e+00 5.7400000000000002e+00 0.0000000000000000e+00
0.0000000000000000e+00 5.7400000000000002e+00 0.0000000000000000e+00
ITEM: ATOMS id type xs ys zs
1 1 -0.00512678 -0.0166733 0.00588492
9 1 0.254285 0.255537 0.252759
5 1 0.0206565 -0.00221917 0.501268
13 1 0.249452 0.240182 0.741612
3 1 -0.00757253 0.490148 -0.0118732
11 1 0.252581 0.75118 0.258007
7 1 -0.00270359 0.499263 0.495665
15 1 0.246725 0.744848 0.765624
2 1 0.490183 0.00677277 0.00165561
10 1 0.749846 0.254232 0.245293
6 1 0.513628 -0.00476764 0.49896
14 1 0.749525 0.245512 0.749762
4 1 0.489432 0.507255 0.00375437
12 1 0.74734 0.766253 0.247282
8 1 0.499992 0.511804 0.494499
16 1 0.751758 0.750674 0.749846
ITEM: TIMESTEP
1800
ITEM: NUMBER OF ATOMS
16
ITEM: BOX BOUNDS xy xz yz pp pp pp
0.0000000000000000e+00 5.7400000000000002e+00 0.0000000000000000e+00
0.0000000000000000e+00 5.7400000000000002e+00 0.0000000000000000e+00
0.0000000000000000e+00 5.7400000000000002e+00 0.0000000000000000e+00
ITEM: ATOMS id type xs ys zs
1 1 0.0216195 0.00747612 -0.00123684
9 1 0.257697 0.238703 0.260059
5 1 -0.00831475 -0.00419586 0.506344
13 1 0.235576 0.263985 0.756549
3 1 -0.000836844 0.49828 0.000434525
11 1 0.255368 0.744165 0.243489
7 1 -0.00764675 0.498304 0.494816
15 1 0.239888 0.742694 0.745865
2 1 0.503001 0.00160376 -0.00858301
10 1 0.74648 0.243969 0.228708
6 1 0.492387 0.00174508 0.513786
14 1 0.756153 0.250396 0.745217
4 1 0.505368 0.497365 -0.00405716
12 1 0.736645 0.768223 0.249036
8 1 0.513002 0.488484 0.500799
16 1 0.753615 0.758803 0.768774
ITEM: TIMESTEP
1900
ITEM: NUMBER OF ATOMS
16
ITEM: BOX BOUNDS xy xz yz pp pp pp
0.0000000000000000e+00 5.7400000000000002e+00 0.0000000000000000e+00
0.0000000000000000e+00 5.7400000000000002e+00 0.0000000000000000e+00
0.0000000000000000e+00 5.7400000000000002e+00 0.0000000000000000e+00
ITEM: ATOMS id type xs ys zs
1 1 -0.0176611 0.0118711 -0.0117274
9 1 0.232999 0.25978 0.234615
5 1 -0.00949436 0.00599245 0.501121
13 1 0.258756 0.251641 0.756075
3 1 0.014502 0.504309 -0.0091357
11 1 0.244793 0.767037 0.239249
7 1 0.0198233 0.494184 0.523611
15 1 0.254877 0.766572 0.741265
2 1 0.516817 -0.0163137 0.0140558
10 1 0.742989 0.253708 0.273005
6 1 0.49758 0.00757653 0.483443
14 1 0.747403 0.253074 0.758321
4 1 0.511395 0.491667 0.00704578
12 1 0.75454 0.711996 0.250488
8 1 0.487242 0.493149 0.505297
16 1 0.743438 0.743757 0.733271
ITEM: TIMESTEP
2000
ITEM: NUMBER OF ATOMS
16
ITEM: BOX BOUNDS xy xz yz pp pp pp
0.0000000000000000e+00 5.7400000000000002e+00 0.0000000000000000e+00
0.0000000000000000e+00 5.7400000000000002e+00 0.0000000000000000e+00
0.0000000000000000e+00 5.7400000000000002e+00 0.0000000000000000e+00
ITEM: ATOMS id type xs ys zs
1 1 0.0114758 -0.0129857 0.012407
9 1 0.262255 0.250903 0.258693
5 1 0.0226918 -0.00232316 0.505837
13 1 0.240078 0.251494 0.73418
3 1 -0.00951756 0.486594 0.000830163
11 1 0.255016 0.739848 0.270415
7 1 -0.0158426 0.501264 0.48258
15 1 0.23868 0.727274 0.755246
2 1 0.484786 0.0151495 0.000820309
10 1 0.74859 0.250824 0.237733
6 1 0.514006 -0.006564 0.510554
14 1 0.75279 0.248068 0.733522
4 1 0.491837 0.510514 0.00250756
12 1 0.739098 0.775627 0.242224
8 1 0.513595 0.51021 0.497365
16 1 0.750462 0.754102 0.755086
ITEM: TIMESTEP
2100
ITEM: NUMBER OF ATOMS
16
ITEM: BOX BOUNDS xy xz yz pp pp pp
0.0000000000000000e+00 5.7400000000000002e+00 0.0000000000000000e+00
0.0000000000000000e+00 5.7400000000000002e+00 0.0000000000000000e+00
0.0000000000000000e+00 5.7400000000000002e+00 0.0000000000000000e+00
ITEM: ATOMS id type xs ys zs
1 1 0.00668197 0.000983801 0.00149343
9 1 0.24691 0.240634 0.253942
5 1 -0.0172824 0.00347593 0.500412
13 1 0.245947 0.247549 0.760978
3 1 0.00704591 0.516719 0.00185764
11 1 0.254433 0.749409 0.235791
7 1 0.0064031 0.500645 0.50937
15 1 0.252299 0.761333 0.741928
2 1 0.514559 -0.00499191 -0.00263344
10 1 0.749207 0.244516 0.241674
6 1 0.482505 -0.00380862 0.49332
14 1 0.748876 0.252272 0.751036
4 1 0.50266 0.497973 0.00475272
12 1 0.74871 0.747703 0.260682
8 1 0.496754 0.499417 0.494891
16 1 0.754292 0.746172 0.750506
ITEM: TIMESTEP
2200
ITEM: NUMBER OF ATOMS
16
ITEM: BOX BOUNDS xy xz yz pp pp pp
0.0000000000000000e+00 5.7400000000000002e+00 0.0000000000000000e+00
0.0000000000000000e+00 5.7400000000000002e+00 0.0000000000000000e+00
0.0000000000000000e+00 5.7400000000000002e+00 0.0000000000000000e+00
ITEM: ATOMS id type xs ys zs
1 1 -0.0145398 0.00746189 -0.0111347
9 1 0.245534 0.257933 0.239829
5 1 -0.000241407 0.00274215 0.499813
13 1 0.262774 0.246187 0.750055
3 1 0.00186111 0.497202 -0.0150723
11 1 0.250799 0.758776 0.242859
7 1 0.00535531 0.496524 0.511845
15 1 0.249598 0.756983 0.757644
2 1 0.496123 -0.00298365 0.00640821
10 1 0.745832 0.246212 0.262175
6 1 0.502447 0.00614429 0.494138
14 1 0.754849 0.24814 0.765742
4 1 0.502726 0.495951 0.00240252
12 1 0.755933 0.73071 0.24555
8 1 0.492176 0.504496 0.503401
16 1 0.748774 0.747521 0.744344
ITEM: TIMESTEP
2300
ITEM: NUMBER OF ATOMS
16
ITEM: BOX BOUNDS xy xz yz pp pp pp
0.0000000000000000e+00 5.7400000000000002e+00 0.0000000000000000e+00
0.0000000000000000e+00 5.7400000000000002e+00 0.0000000000000000e+00
0.0000000000000000e+00 5.7400000000000002e+00 0.0000000000000000e+00
ITEM: ATOMS id type xs ys zs
1 1 0.0140289 -0.00129571 0.00509332
9 1 0.264948 0.246016 0.261058
5 1 0.0108043 -0.00271749 0.508767
13 1 0.236571 0.258203 0.746414
3 1 -0.0149379 0.483373 0.00138252
11 1 0.260849 0.739653 0.273242
7 1 -0.0217672 0.502419 0.48052
15 1 0.242492 0.722361 0.758313
2 1 0.486365 0.0125007 -0.0115255
10 1 0.749719 0.256611 0.236542
6 1 0.51126 0.00409892 0.507727
14 1 0.759008 0.248893 0.734664
4 1 0.49158 0.507504 -0.00690835
12 1 0.745163 0.77313 0.24574
8 1 0.508247 0.49554 0.496644
16 1 0.755669 0.75371 0.762328
ITEM: TIMESTEP
2400
ITEM: NUMBER OF ATOMS
16
ITEM: BOX BOUNDS xy xz yz pp pp pp
0.0000000000000000e+00 5.7400000000000002e+00 0.0000000000000000e+00
0.0000000000000000e+00 5.7400000000000002e+00 0.0000000000000000e+00
0.0000000000000000e+00 5.7400000000000002e+00 0.0000000000000000e+00
ITEM: ATOMS id type xs ys zs
1 1 -0.00849417 0.00377754 -0.00780808
9 1 0.238727 0.247 0.247374
5 1 -0.0214965 0.00130624 0.492787
13 1 0.255123 0.250189 0.765734
3 1 0.00915062 0.514206 -0.00319214
11 1 0.248109 0.760025 0.23658
7 1 0.0188878 0.499552 0.517307
15 1 0.259976 0.775848 0.73613
2 1 0.523859 -0.0172762 0.00685528
10 1 0.750141 0.254116 0.265626
6 1 0.483008 -0.000681437 0.475652
14 1 0.743754 0.253164 0.751241
4 1 0.503385 0.493045 0.00794787
12 1 0.753827 0.725907 0.268705
8 1 0.488824 0.495887 0.495567
16 1 0.753219 0.743936 0.743494
ITEM: TIMESTEP
2500
ITEM: NUMBER OF ATOMS
16
ITEM: BOX BOUNDS xy xz yz pp pp pp
0.0000000000000000e+00 5.7400000000000002e+00 0.0000000000000000e+00
0.0000000000000000e+00 5.7400000000000002e+00 0.0000000000000000e+00
0.0000000000000000e+00 5.7400000000000002e+00 0.0000000000000000e+00
ITEM: ATOMS id type xs ys zs
1 1 0.00169102 -0.00394501 0.000948442
9 1 0.251331 0.258835 0.248933
5 1 0.017482 -0.0091905 0.4946
13 1 0.259606 0.249189 0.736591
3 1 0.00428792 0.496904 -0.0096958
11 1 0.252415 0.751743 0.251692
7 1 -0.0116161 0.49524 0.492623
15 1 0.235516 0.748938 0.758169
2 1 0.480742 0.00665817 0.00567961
10 1 0.742561 0.23817 0.254126
6 1 0.508432 -0.00971371 0.509614
14 1 0.756971 0.250547 0.761389
4 1 0.503437 0.498037 0.00556732
12 1 0.739016 0.761241 0.237068
8 1 0.508197 0.512638 0.500069
16 1 0.749932 0.754708 0.752627
ITEM: TIMESTEP
2600
ITEM: NUMBER OF ATOMS
16
ITEM: BOX BOUNDS xy xz yz pp pp pp
0.0000000000000000e+00 5.7400000000000002e+00 0.0000000000000000e+00
0.0000000000000000e+00 5.7400000000000002e+00 0.0000000000000000e+00
0.0000000000000000e+00 5.7400000000000002e+00 0.0000000000000000e+00
ITEM: ATOMS id type xs ys zs
1 1 0.0149789 -0.00636864 0.00898553
9 1 0.251537 0.244695 0.250106
5 1 0.00626332 0.00508803 0.517353
13 1 0.228711 0.249232 0.756293
3 1 -0.00658248 0.494454 0.00172845
11 1 0.258417 0.7443 0.255801
7 1 -0.00668014 0.499088 0.502747
15 1 0.248714 0.737332 0.757935
2 1 0.506919 0.00852305 -0.0132889
10 1 0.746578 0.258748 0.225093
6 1 0.50664 0.00110586 0.503815
14 1 0.748086 0.255028 0.736897
4 1 0.496195 0.50237 -0.00558104
12 1 0.745992 0.767257 0.24944
8 1 0.501676 0.493662 0.499576
16 1 0.752556 0.745485 0.753099
ITEM: TIMESTEP
2700
ITEM: NUMBER OF ATOMS
16
ITEM: BOX BOUNDS xy xz yz pp pp pp
0.0000000000000000e+00 5.7400000000000002e+00 0.0000000000000000e+00
0.0000000000000000e+00 5.7400000000000002e+00 0.0000000000000000e+00
0.0000000000000000e+00 5.7400000000000002e+00 0.0000000000000000e+00
ITEM: ATOMS id type xs ys zs
1 1 -0.00832535 0.0139159 -0.0110279
9 1 0.241359 0.251152 0.241473
5 1 -0.0191472 0.00386378 0.497813
13 1 0.253802 0.257594 0.7564
3 1 0.00820247 0.503126 -0.00415224
11 1 0.237887 0.754839 0.229009
7 1 0.0224906 0.499853 0.518356
15 1 0.258986 0.767571 0.732276
2 1 0.517627 -0.0145579 0.0173716
10 1 0.748008 0.253438 0.266287
6 1 0.488168 0.00796309 0.486051
14 1 0.748102 0.251815 0.751395
4 1 0.507043 0.492941 0.00702476
12 1 0.752256 0.715652 0.260445
8 1 0.498065 0.497667 0.50887
16 1 0.745478 0.743167 0.742411
ITEM: TIMESTEP
2800
ITEM: NUMBER OF ATOMS
16
ITEM: BOX BOUNDS xy xz yz pp pp pp
0.0000000000000000e+00 5.7400000000000002e+00 0.0000000000000000e+00
0.0000000000000000e+00 5.7400000000000002e+00 0.0000000000000000e+00
0.0000000000000000e+00 5.7400000000000002e+00 0.0000000000000000e+00
ITEM: ATOMS id type xs ys zs
1 1 0.010703 0.00217762 0.00625709
9 1 0.258029 0.249575 0.254466
5 1 0.0171334 -0.00889009 0.499078
13 1 0.248755 0.25384 0.734159
3 1 -0.003407 0.491939 0.00430498
11 1 0.256602 0.750277 0.264392
7 1 -0.0222018 0.503082 0.480897
15 1 0.235221 0.730885 0.754513
2 1 0.479006 0.0081457 0.0042995
10 1 0.745757 0.240308 0.24532
6 1 0.513443 -0.0020125 0.514468
14 1 0.760206 0.245839 0.745754
4 1 0.50001 0.507112 0.00133978
12 1 0.73891 0.767449 0.238398
8 1 0.511081 0.50266 0.499928
16 1 0.750752 0.757614 0.752426
ITEM: TIMESTEP
2900
ITEM: NUMBER OF ATOMS
16
ITEM: BOX BOUNDS xy xz yz pp pp pp
0.0000000000000000e+00 5.7400000000000002e+00 0.0000000000000000e+00
0.0000000000000000e+00 5.7400000000000002e+00 0.0000000000000000e+00
0.0000000000000000e+00 5.7400000000000002e+00 0.0000000000000000e+00
ITEM: ATOMS id type xs ys zs
1 1 -0.00118021 -0.0110702 0.00564477
9 1 0.243586 0.240417 0.246355
5 1 -0.00700831 0.00699497 0.507833
13 1 0.244039 0.235257 0.767627
3 1 -0.00128343 0.505595 -0.00335208
11 1 0.260578 0.754061 0.246595
7 1 0.00713111 0.501934 0.513621
15 1 0.257482 0.758746 0.75515
2 1 0.515982 -0.00260793 -0.00838479
10 1 0.752379 0.258043 0.240215
6 1 0.493284 0.0014643 0.482045
14 1 0.740275 0.253359 0.74481
4 1 0.494898 0.501679 0.00194997
12 1 0.755701 0.752102 0.26125
8 1 0.488712 0.499295 0.492709
16 1 0.755423 0.744732 0.745934
ITEM: TIMESTEP
3000
ITEM: NUMBER OF ATOMS
16
ITEM: BOX BOUNDS xy xz yz pp pp pp
0.0000000000000000e+00 5.7400000000000002e+00 0.0000000000000000e+00
0.0000000000000000e+00 5.7400000000000002e+00 0.0000000000000000e+00
0.0000000000000000e+00 5.7400000000000002e+00 0.0000000000000000e+00
ITEM: ATOMS id type xs ys zs
1 1 -0.00298338 0.0105242 -0.0168268
9 1 0.254498 0.261372 0.251415
5 1 -0.0141439 0.00217763 0.490489
13 1 0.262494 0.26158 0.750234
3 1 0.00481275 0.504283 -0.0124491
11 1 0.243404 0.745551 0.233763
7 1 0.00512736 0.492122 0.503192
15 1 0.249019 0.761009 0.742306
2 1 0.492054 -0.00386512 0.00702992
10 1 0.748891 0.239943 0.265531
6 1 0.486238 -0.00422954 0.502206
14 1 0.761573 0.255471 0.76537
4 1 0.503835 0.488161 0.00152999
12 1 0.74663 0.731585 0.251051
8 1 0.508987 0.508424 0.505536
16 1 0.749565 0.745891 0.759622
ITEM: TIMESTEP
3100
ITEM: NUMBER OF ATOMS
16
ITEM: BOX BOUNDS xy xz yz pp pp pp
0.0000000000000000e+00 5.7400000000000002e+00 0.0000000000000000e+00
0.0000000000000000e+00 5.7400000000000002e+00 0.0000000000000000e+00
0.0000000000000000e+00 5.7400000000000002e+00 0.0000000000000000e+00
ITEM: ATOMS id type xs ys zs
1 1 0.00831611 -0.00181924 0.00362265
9 1 0.256655 0.253046 0.258517
5 1 0.0183797 -0.00513712 0.505454
13 1 0.237633 0.253394 0.74649
3 1 -0.00751265 0.489203 0.00720846
11 1 0.261126 0.747028 0.278586
7 1 -0.0270137 0.499576 0.481245
15 1 0.244176 0.723209 0.764624
2 1 0.482587 0.00920304 -0.00943253
10 1 0.743001 0.254595 0.241161
6 1 0.519998 0.00237985 0.503999
14 1 0.762538 0.254732 0.739963
4 1 0.49812 0.50861 -0.00792852
12 1 0.749944 0.769677 0.242139
8 1 0.500547 0.491322 0.494816
16 1 0.751505 0.750982 0.749536
ITEM: TIMESTEP
3200
ITEM: NUMBER OF ATOMS
16
ITEM: BOX BOUNDS xy xz yz pp pp pp
0.0000000000000000e+00 5.7400000000000002e+00 0.0000000000000000e+00
0.0000000000000000e+00 5.7400000000000002e+00 0.0000000000000000e+00
0.0000000000000000e+00 5.7400000000000002e+00 0.0000000000000000e+00
ITEM: ATOMS id type xs ys zs
1 1 -0.00738379 -0.00290975 0.00106893
9 1 0.237727 0.238077 0.241934
5 1 -0.0135653 0.000769562 0.504884
13 1 0.247038 0.240768 0.766306
3 1 0.000506011 0.496769 -0.00663526
11 1 0.251705 0.762687 0.239173
7 1 0.0227038 0.505117 0.515294
15 1 0.257264 0.769871 0.746961
2 1 0.52344 -0.0168176 0.00445475
10 1 0.752652 0.262838 0.253223
6 1 0.494363 0.0116882 0.470006
14 1 0.732739 0.247559 0.744959
4 1 0.497924 0.500659 0.00600221
12 1 0.76028 0.735816 0.268379
8 1 0.491248 0.497453 0.498515
16 1 0.751359 0.749655 0.745476
ITEM: TIMESTEP
3300
ITEM: NUMBER OF ATOMS
16
ITEM: BOX BOUNDS xy xz yz pp pp pp
0.0000000000000000e+00 5.7400000000000002e+00 0.0000000000000000e+00
0.0000000000000000e+00 5.7400000000000002e+00 0.0000000000000000e+00
0.0000000000000000e+00 5.7400000000000002e+00 0.0000000000000000e+00
ITEM: ATOMS id type xs ys zs
1 1 0.0120761 0.012715 -0.0076655
9 1 0.255136 0.255277 0.253261
5 1 0.000973386 -0.00712889 0.488504
13 1 0.262597 0.263765 0.737753
3 1 0.00481721 0.505118 -0.00265208
11 1 0.243712 0.748692 0.239433
7 1 -0.00562571 0.497662 0.492236
15 1 0.235599 0.751424 0.740841
2 1 0.482103 0.0024836 0.00867252
10 1 0.746527 0.229302 0.253607
6 1 0.495968 -0.0124288 0.521846
14 1 0.761851 0.244813 0.763109
4 1 0.506755 0.495734 0.00539085
12 1 0.728659 0.751691 0.236366
8 1 0.518185 0.506684 0.507943
16 1 0.750666 0.754197 0.761355
ITEM: TIMESTEP
3400
ITEM: NUMBER OF ATOMS
16
ITEM: BOX BOUNDS xy xz yz pp pp pp
0.0000000000000000e+00 5.7400000000000002e+00 0.0000000000000000e+00
0.0000000000000000e+00 5.7400000000000002e+00 0.0000000000000000e+00
0.0000000000000000e+00 5.7400000000000002e+00 0.0000000000000000e+00
ITEM: ATOMS id type xs ys zs
1 1 -0.000440026 -0.0115225 0.0113517
9 1 0.242708 0.25086 0.242876
5 1 0.0147508 0.00822061 0.51466
13 1 0.235087 0.240269 0.755406
3 1 -0.00354028 0.499937 0.00309001
11 1 0.261559 0.746667 0.266027
7 1 -0.00723083 0.495116 0.508071
15 1 0.255747 0.737298 0.762085
2 1 0.505554 0.0106171 -0.0114456
10 1 0.744338 0.263155 0.236172
6 1 0.514501 -9.3155e-05 0.495858
14 1 0.744867 0.25921 0.735289
4 1 0.498601 0.503978 -0.00224164
12 1 0.756731 0.759619 0.246952
8 1 0.487532 0.497763 0.497255
16 1 0.749236 0.738907 0.738594
ITEM: TIMESTEP
3500
ITEM: NUMBER OF ATOMS
16
ITEM: BOX BOUNDS xy xz yz pp pp pp
0.0000000000000000e+00 5.7400000000000002e+00 0.0000000000000000e+00
0.0000000000000000e+00 5.7400000000000002e+00 0.0000000000000000e+00
0.0000000000000000e+00 5.7400000000000002e+00 0.0000000000000000e+00
ITEM: ATOMS id type xs ys zs
1 1 -0.000841529 0.00339302 3.21581e-05
9 1 0.249788 0.248683 0.246608
5 1 -0.0151608 0.00131426 0.502434
13 1 0.249814 0.252908 0.75205
3 1 0.000527878 0.494865 -0.00655338
11 1 0.237471 0.747172 0.232464
7 1 0.016414 0.501403 0.506684
15 1 0.253832 0.762955 0.737048
2 1 0.512909 -0.00838864 0.0112178
10 1 0.753659 0.2534 0.259137
6 1 0.488924 0.00597734 0.4876
14 1 0.746575 0.256563 0.748001
4 1 0.498863 0.495077 0.00309229
12 1 0.755844 0.731465 0.261859
8 1 0.504699 0.505704 0.505108
16 1 0.746684 0.747508 0.753218
ITEM: TIMESTEP